# vtk DataFile Version 3.0
vtk output
ASCII
DATASET STRUCTURED_POINTS
DIMENSIONS 100 100 1
SPACING 0.010101 0.010101 0
ORIGIN 0.000000 0.000000 0
POINT_DATA 10000
SCALARS RTData float
LOOKUP_TABLE default
-0.000000 0.001751 0.003615 0.005590 0.007677 0.009874 0.012182 0.014599 0.017124 0.019758 0.022497 0.025343 0.028292 0.031344 0.034497 0.037751 0.041102 0.044551 0.048094 0.051731 0.055459 0.059277 0.063183 0.067175 0.071250 0.075408 0.079647 0.083963 0.088355 0.092822 0.097362 0.101971 0.106649 0.111393 0.116202 0.121074 0.126006 0.130997 0.136046 0.141149 0.146306 0.151514 0.156773 0.162079 0.167432 0.172831 0.178272 0.183756 0.189280 0.194842 0.200442 0.206078 0.211749 0.217453 0.223189 0.228956 0.234752 0.240577 0.246429 0.252307 0.258210 0.264138 0.270088 0.276060 0.282054 0.288068 0.294102 0.300154 0.306223 0.312310 0.318413 0.324532 0.330666 0.336814 0.342975 0.349150 0.355337 0.361536 0.367747 0.373968 0.380199 0.386441 0.392692 0.398952 0.405220 0.411496 0.417781 0.424072 0.430370 0.436675 0.442986 0.449303 0.455625 0.461952 0.468284 0.474620 0.480960 0.487304 0.493650 0.500000 0.001751 0.003514 0.005390 0.007377 0.009476 0.011686 0.014006 0.016435 0.018973 0.021619 0.024372 0.027229 0.030192 0.033257 0.036423 0.039689 0.043054 0.046516 0.050072 0.053722 0.057464 0.061295 0.065215 0.069220 0.073309 0.077481 0.081733 0.086063 0.090469 0.094950 0.099503 0.104126 0.108818 0.113576 0.118399 0.123284 0.128231 0.133236 0.138298 0.143415 0.148585 0.153808 0.159080 0.164400 0.169767 0.175179 0.180634 0.186131 0.191668 0.197244 0.202858 0.208507 0.214191 0.219908 0.225657 0.231436 0.237246 0.243083 0.248947 0.254838 0.260753 0.266693 0.272655 0.278640 0.284645 0.290670 0.296715 0.302778 0.308859 0.314957 0.321070 0.327200 0.333343 0.339501 0.345673 0.351857 0.358053 0.364262 0.370481 0.376711 0.382951 0.389200 0.395459 0.401727 0.408002 0.414286 0.420577 0.426875 0.433180 0.439491 0.445808 0.452130 0.458457 0.464789 0.471126 0.477466 0.483810 0.490158 0.496508 0.502861 0.003615 0.005390 0.007277 0.009277 0.011388 0.013609 0.015942 0.018384 0.020934 0.023592 0.026357 0.029228 0.032202 0.035280 0.038459 0.041738 0.045116 0.048590 0.052160 0.055823 0.059577 0.063422 0.067354 0.071372 0.075475 0.079660 0.083925 0.088268 0.092687 0.097181 0.101748 0.106384 0.111089 0.115861 0.120697 0.125596 0.130555 0.135573 0.140649 0.145779 0.150963 0.156198 0.161484 0.166817 0.172197 0.177622 0.183091 0.188601 0.194151 0.199740 0.205366 0.211028 0.216724 0.222454 0.228215 0.234007 0.239829 0.245678 0.251555 0.257457 0.263385 0.269336 0.275310 0.281305 0.287322 0.293358 0.299414 0.305488 0.311579 0.317687 0.323811 0.329950 0.336104 0.342272 0.348452 0.354646 0.360851 0.367068 0.373296 0.379534 0.385782 0.392040 0.398306 0.404581 0.410864 0.417154 0.423452 0.429756 0.436067 0.442383 0.448705 0.455033 0.461365 0.467702 0.474042 0.480387 0.486735 0.493085 0.499439 0.505794 0.005590 0.007377 0.009277 0.011288 0.013411 0.015645 0.017990 0.020444 0.023007 0.025677 0.028454 0.031337 0.034324 0.037414 0.040606 0.043897 0.047287 0.050774 0.054356 0.058032 0.061799 0.065656 0.069601 0.073632 0.077747 0.081944 0.086222 0.090578 0.095010 0.099516 0.104095 0.108745 0.113463 0.118247 0.123096 0.128007 0.132979 0.138010 0.143098 0.148241 0.153438 0.158686 0.163984 0.169330 0.174723 0.180161 0.185641 0.191164 0.196726 0.202328 0.207966 0.213640 0.219349 0.225091 0.230864 0.236668 0.242501 0.248362 0.254251 0.260165 0.266103 0.272066 0.278051 0.284057 0.290085 0.296132 0.302198 0.308282 0.314384 0.320502 0.326636 0.332784 0.338948 0.345124 0.351314 0.357516 0.363730 0.369956 0.376192 0.382438 0.388693 0.394958 0.401232 0.407514 0.413803 0.420100 0.426404 0.432714 0.439030 0.445352 0.451679 0.458011 0.464348 0.470689 0.477033 0.483382 0.489733 0.496086 0.502442 0.508800 0.007677 0.009476 0.011388 0.013411 0.015546 0.017793 0.020149 0.022615 0.025190 0.027873 0.030662 0.033557 0.036556 0.039658 0.042862 0.046166 0.049568 0.053067 0.056661 0.060348 0.064128 0.067997 0.071954 0.075997 0.080124 0.084334 0.088623 0.092991 0.097436 0.101955 0.106546 0.111207 0.115937 0.120734 0.125595 0.130518 0.135503 0.140546 0.145646 0.150802 0.156010 0.161271 0.166581 0.171939 0.177344 0.182793 0.188286 0.193820 0.199395 0.205008 0.210658 0.216344 0.222065 0.227818 0.233603 0.239418 0.245263 0.251135 0.257035 0.262960 0.268909 0.274882 0.280878 0.286895 0.292933 0.298991 0.305067 0.311161 0.317272 0.323400 0.329543 0.335701 0.341874 0.348059 0.354258 0.360468 0.366691 0.372924 0.379168 0.385421 0.391684 0.397956 0.404237 0.410525 0.416821 0.423123 0.429433 0.435749 0.442070 0.448397 0.454729 0.461065 0.467406 0.473751 0.480099 0.486450 0.492804 0.499160 0.505519 0.511879 0.009874 0.011686 0.013609 0.015645 0.017793 0.020051 0.022420 0.024898 0.027485 0.030179 0.032981 0.035887 0.038898 0.042012 0.045228 0.048543 0.051957 0.055468 0.059073 0.062773 0.066564 0.070444 0.074413 0.078468 0.082607 0.086828 0.091129 0.095509 0.099965 0.104496 0.109098 0.113772 0.118513 0.123321 0.128194 0.133129 0.138125 0.143180 0.148292 0.153459 0.158679 0.163951 0.169273 0.174643 0.180059 0.185520 0.191024 0.196570 0.202156 0.207781 0.213442 0.219139 0.224871 0.230635 0.236431 0.242258 0.248113 0.253996 0.259906 0.265842 0.271802 0.277786 0.283792 0.289819 0.295867 0.301934 0.308020 0.314124 0.320245 0.326382 0.332534 0.338701 0.344882 0.351076 0.357283 0.363501 0.369732 0.375972 0.382224 0.388484 0.394754 0.401033 0.407320 0.413614 0.419916 0.426225 0.432539 0.438860 0.445187 0.451518 0.457854 0.464195 0.470539 0.476887 0.483238 0.489592 0.495949 0.502307 0.508668 0.515029 0.012182 0.014006 0.015942 0.017990 0.020149 0.022420 0.024800 0.027290 0.029889 0.032596 0.035409 0.038327 0.041350 0.044475 0.047702 0.051029 0.054454 0.057976 0.061593 0.065304 0.069106 0.072998 0.076978 0.081044 0.085194 0.089426 0.093739 0.098130 0.102597 0.107139 0.111753 0.116437 0.121190 0.126009 0.130893 0.135839 0.140846 0.145912 0.151035 0.156213 0.161445 0.166728 0.172060 0.177441 0.182869 0.188341 0.193856 0.199413 0.205009 0.210645 0.216317 0.222025 0.227767 0.233542 0.239349 0.245186 0.251052 0.256946 0.262866 0.268812 0.274782 0.280775 0.286791 0.292828 0.298886 0.304962 0.311058 0.317171 0.323300 0.329446 0.335607 0.341783 0.347972 0.354174 0.360389 0.366615 0.372853 0.379101 0.385359 0.391627 0.397903 0.404188 0.410481 0.416782 0.423089 0.429403 0.435723 0.442048 0.448379 0.454715 0.461055 0.467399 0.473747 0.480098 0.486452 0.492808 0.499166 0.505527 0.511888 0.518251 0.014599 0.016435 0.018384 0.020444 0.022615 0.024898 0.027290 0.029792 0.032403 0.035121 0.037945 0.040875 0.043909 0.047046 0.050284 0.053622 0.057059 0.060592 0.064220 0.067941 0.071754 0.075657 0.079648 0.083725 0.087886 0.092129 0.096452 0.100853 0.105331 0.109883 0.114508 0.119203 0.123966 0.128796 0.133690 0.138647 0.143665 0.148742 0.153875 0.159064 0.164306 0.169599 0.174943 0.180334 0.185772 0.191254 0.196780 0.202347 0.207955 0.213600 0.219283 0.225001 0.230754 0.236539 0.242356 0.248203 0.254079 0.259982 0.265912 0.271868 0.277848 0.283851 0.289876 0.295922 0.301989 0.308075 0.314179 0.320301 0.326439 0.332593 0.338763 0.344946 0.351143 0.357353 0.363576 0.369809 0.376054 0.382309 0.388574 0.394848 0.401131 0.407422 0.413721 0.420027 0.426339 0.432658 0.438982 0.445312 0.451647 0.457987 0.464330 0.470678 0.477028 0.483382 0.489738 0.496096 0.502457 0.508818 0.515181 0.521544 0.017124 0.018973 0.020934 0.023007 0.025190 0.027485 0.029889 0.032403 0.035025 0.037754 0.040590 0.043532 0.046577 0.049724 0.052974 0.056322 0.059770 0.063313 0.066952 0.070684 0.074508 0.078421 0.082422 0.086509 0.090680 0.094933 0.099267 0.103679 0.108167 0.112729 0.117364 0.122069 0.126842 0.131682 0.136586 0.141553 0.146581 0.151668 0.156811 0.162010 0.167262 0.172566 0.177919 0.183320 0.188768 0.194261 0.199796 0.205374 0.210991 0.216646 0.222339 0.228067 0.233829 0.239624 0.245451 0.251307 0.257193 0.263106 0.269045 0.275010 0.280999 0.287011 0.293046 0.299101 0.305176 0.311271 0.317384 0.323514 0.329660 0.335823 0.342000 0.348191 0.354396 0.360613 0.366843 0.373084 0.379335 0.385597 0.391868 0.398148 0.404437 0.410734 0.417038 0.423348 0.429666 0.435989 0.442318 0.448652 0.454991 0.461334 0.467680 0.474030 0.480384 0.486739 0.493098 0.499458 0.505819 0.512182 0.518545 0.524909 0.019758 0.021619 0.023592 0.025677 0.027873 0.030179 0.032596 0.035121 0.037754 0.040495 0.043342 0.046295 0.049351 0.052509 0.055769 0.059128 0.062586 0.066140 0.069789 0.073531 0.077365 0.081288 0.085299 0.089396 0.093577 0.097840 0.102183 0.106605 0.111103 0.115674 0.120319 0.125033 0.129816 0.134666 0.139580 0.144557 0.149594 0.154690 0.159843 0.165051 0.170313 0.175626 0.180989 0.186400 0.191857 0.197359 0.202904 0.208491 0.214117 0.219782 0.225484 0.231222 0.236993 0.242798 0.248633 0.254499 0.260393 0.266316 0.272264 0.278238 0.284236 0.290257 0.296300 0.302363 0.308447 0.314550 0.320671 0.326809 0.332964 0.339134 0.345318 0.351517 0.357729 0.363953 0.370190 0.376437 0.382695 0.388963 0.395240 0.401526 0.407820 0.414122 0.420431 0.426747 0.433069 0.439396 0.445729 0.452067 0.458409 0.464755 0.471104 0.477457 0.483812 0.490170 0.496530 0.502891 0.509253 0.515616 0.521980 0.528343 0.022497 0.024372 0.026357 0.028454 0.030662 0.032981 0.035409 0.037945 0.040590 0.043342 0.046201 0.049164 0.052230 0.055400 0.058670 0.062039 0.065507 0.069071 0.072730 0.076482 0.080326 0.084258 0.088279 0.092385 0.096576 0.100848 0.105201 0.109631 0.114138 0.118719 0.123373 0.128096 0.132889 0.137747 0.142670 0.147656 0.152702 0.157807 0.162969 0.168187 0.173457 0.178779 0.184151 0.189571 0.195038 0.200549 0.206103 0.211698 0.217334 0.223008 0.228719 0.234465 0.240245 0.246059 0.251903 0.257777 0.263681 0.269611 0.275568 0.281551 0.287557 0.293586 0.299637 0.305709 0.311801 0.317912 0.324040 0.330186 0.336348 0.342526 0.348718 0.354923 0.361142 0.367373 0.373616 0.379870 0.386134 0.392408 0.398690 0.404982 0.411281 0.417588 0.423902 0.430222 0.436548 0.442879 0.449216 0.455556 0.461901 0.468250 0.474602 0.480957 0.487314 0.493673 0.500034 0.506396 0.512758 0.519122 0.525485 0.531848 0.025343 0.027229 0.029228 0.031337 0.033557 0.035887 0.038327 0.040875 0.043532 0.046295 0.049164 0.052137 0.055215 0.058394 0.061674 0.065054 0.068532 0.072106 0.075774 0.079536 0.083388 0.087330 0.091360 0.095475 0.099675 0.103956 0.108317 0.112757 0.117272 0.121862 0.126524 0.131257 0.136057 0.140925 0.145856 0.150851 0.155905 0.161019 0.166190 0.171416 0.176695 0.182025 0.187406 0.192834 0.198309 0.203829 0.209391 0.214995 0.220639 0.226322 0.232041 0.237796 0.243585 0.249406 0.255259 0.261142 0.267053 0.272992 0.278958 0.284948 0.290962 0.296999 0.303058 0.309138 0.315237 0.321356 0.327492 0.333645 0.339814 0.345998 0.352197 0.358409 0.364635 0.370872 0.377121 0.383381 0.389650 0.395930 0.402218 0.408514 0.414819 0.421130 0.427448 0.433772 0.440102 0.446437 0.452776 0.459120 0.465468 0.471819 0.478173 0.484529 0.490888 0.497248 0.503609 0.509972 0.516335 0.522698 0.529060 0.535422 0.028292 0.030192 0.032202 0.034324 0.036556 0.038898 0.041350 0.043909 0.046577 0.049351 0.052230 0.055215 0.058302 0.061492 0.064782 0.068171 0.071659 0.075242 0.078920 0.082690 0.086552 0.090503 0.094541 0.098665 0.102873 0.107163 0.111533 0.115981 0.120505 0.125103 0.129773 0.134513 0.139322 0.144198 0.149137 0.154140 0.159203 0.164324 0.169503 0.174737 0.180024 0.185363 0.190751 0.196188 0.201671 0.207198 0.212769 0.218381 0.224033 0.229724 0.235451 0.241214 0.247011 0.252840 0.258701 0.264592 0.270511 0.276458 0.282431 0.288429 0.294451 0.300495 0.306562 0.312649 0.318755 0.324881 0.331024 0.337184 0.343360 0.349551 0.355756 0.361975 0.368206 0.374449 0.380704 0.386969 0.393245 0.399529 0.405822 0.412123 0.418432 0.424747 0.431069 0.437397 0.443731 0.450069 0.456411 0.462757 0.469107 0.475460 0.481816 0.488174 0.494533 0.500894 0.507256 0.513618 0.519981 0.526343 0.532705 0.539066 0.031344 0.033257 0.035280 0.037414 0.039658 0.042012 0.044475 0.047046 0.049724 0.052509 0.055400 0.058394 0.061492 0.064691 0.067991 0.071390 0.074886 0.078479 0.082165 0.085945 0.089815 0.093775 0.097822 0.101954 0.106170 0.110468 0.114846 0.119301 0.123833 0.128439 0.133117 0.137865 0.142682 0.147565 0.152512 0.157522 0.162593 0.167722 0.172909 0.178150 0.183445 0.188791 0.194187 0.199631 0.205122 0.210657 0.216235 0.221855 0.227515 0.233213 0.238948 0.244718 0.250523 0.256360 0.262228 0.268126 0.274053 0.280007 0.285987 0.291993 0.298022 0.304073 0.310147 0.316241 0.322354 0.328487 0.334636 0.340803 0.346985 0.353182 0.359394 0.365618 0.371856 0.378105 0.384365 0.390635 0.396915 0.403205 0.409502 0.415808 0.422121 0.428440 0.434766 0.441097 0.447433 0.453774 0.460119 0.466468 0.472820 0.479174 0.485531 0.491890 0.498250 0.504611 0.510973 0.517335 0.523697 0.530058 0.536419 0.542778 0.034497 0.036423 0.038459 0.040606 0.042862 0.045228 0.047702 0.050284 0.052974 0.055769 0.058670 0.061674 0.064782 0.067991 0.071300 0.074709 0.078214 0.081815 0.085511 0.089298 0.093177 0.097145 0.101200 0.105340 0.109564 0.113869 0.118255 0.122718 0.127257 0.131870 0.136556 0.141311 0.146135 0.151025 0.155980 0.160997 0.166075 0.171211 0.176405 0.181654 0.186956 0.192309 0.197712 0.203164 0.208661 0.214204 0.219789 0.225416 0.231083 0.236788 0.242530 0.248308 0.254119 0.259964 0.265839 0.271744 0.277678 0.283639 0.289626 0.295639 0.301674 0.307733 0.313813 0.319914 0.326034 0.332172 0.338329 0.344501 0.350690 0.356893 0.363110 0.369340 0.375583 0.381837 0.388102 0.394378 0.400663 0.406956 0.413258 0.419568 0.425884 0.432207 0.438536 0.444870 0.451209 0.457553 0.463900 0.470250 0.476604 0.482960 0.489317 0.495677 0.502037 0.508398 0.514760 0.521121 0.527482 0.533842 0.540200 0.546557 0.037751 0.039689 0.041738 0.043897 0.046166 0.048543 0.051029 0.053622 0.056322 0.059128 0.062039 0.065054 0.068171 0.071390 0.074709 0.078126 0.081640 0.085250 0.088953 0.092749 0.096636 0.100612 0.104674 0.108822 0.113053 0.117366 0.121759 0.126229 0.130776 0.135396 0.140088 0.144851 0.149681 0.154578 0.159540 0.164563 0.169648 0.174791 0.179991 0.185247 0.190555 0.195916 0.201326 0.206784 0.212288 0.217837 0.223429 0.229063 0.234737 0.240449 0.246198 0.251982 0.257800 0.263651 0.269533 0.275445 0.281386 0.287353 0.293347 0.299366 0.305408 0.311473 0.317560 0.323667 0.329793 0.335937 0.342099 0.348278 0.354472 0.360681 0.366903 0.373139 0.379387 0.385646 0.391916 0.398196 0.404485 0.410783 0.417089 0.423402 0.429722 0.436048 0.442380 0.448717 0.455058 0.461404 0.467753 0.474105 0.480459 0.486816 0.493174 0.499534 0.505894 0.512255 0.518616 0.524976 0.531335 0.537693 0.544050 0.550404 0.041102 0.043054 0.045116 0.047287 0.049568 0.051957 0.054454 0.057059 0.059770 0.062586 0.065507 0.068532 0.071659 0.074886 0.078214 0.081640 0.085163 0.088781 0.092493 0.096296 0.100191 0.104174 0.108244 0.112399 0.116637 0.120957 0.125357 0.129834 0.134387 0.139014 0.143712 0.148481 0.153319 0.158222 0.163190 0.168220 0.173311 0.178460 0.183667 0.188928 0.194243 0.199610 0.205026 0.210490 0.216001 0.221557 0.227155 0.232795 0.238475 0.244194 0.249949 0.255740 0.261564 0.267421 0.273310 0.279228 0.285175 0.291149 0.297149 0.303174 0.309222 0.315293 0.321386 0.327498 0.333630 0.339781 0.345948 0.352132 0.358332 0.364546 0.370773 0.377014 0.383267 0.389530 0.395805 0.402089 0.408382 0.414684 0.420993 0.427310 0.433633 0.439962 0.446297 0.452636 0.458979 0.465327 0.471677 0.478030 0.484386 0.490743 0.497101 0.503461 0.509821 0.516181 0.522540 0.528899 0.535256 0.541612 0.547966 0.554317 0.044551 0.046516 0.048590 0.050774 0.053067 0.055468 0.057976 0.060592 0.063313 0.066140 0.069071 0.072106 0.075242 0.078479 0.081815 0.085250 0.088781 0.092407 0.096127 0.099938 0.103840 0.107830 0.111907 0.116069 0.120314 0.124641 0.129047 0.133530 0.138090 0.142723 0.147428 0.152203 0.157046 0.161955 0.166929 0.171965 0.177062 0.182217 0.187430 0.192697 0.198018 0.203391 0.208813 0.214283 0.219800 0.225361 0.230966 0.236612 0.242298 0.248022 0.253783 0.259580 0.265410 0.271274 0.277168 0.283092 0.289045 0.295025 0.301031 0.307061 0.313115 0.319192 0.325290 0.331408 0.337546 0.343702 0.349875 0.356064 0.362268 0.368487 0.374719 0.380965 0.387222 0.393490 0.399768 0.406056 0.412353 0.418659 0.424971 0.431291 0.437617 0.443948 0.450285 0.456626 0.462972 0.469320 0.475672 0.482026 0.488382 0.494739 0.501098 0.507457 0.513816 0.520174 0.526532 0.532889 0.539244 0.545597 0.551948 0.558296 0.048094 0.050072 0.052160 0.054356 0.056661 0.059073 0.061593 0.064220 0.066952 0.069789 0.072730 0.075774 0.078920 0.082165 0.085511 0.088953 0.092493 0.096127 0.099854 0.103673 0.107582 0.111579 0.115663 0.119831 0.124083 0.128416 0.132828 0.137317 0.141883 0.146522 0.151233 0.156013 0.160862 0.165777 0.170756 0.175798 0.180900 0.186061 0.191279 0.196552 0.201879 0.207257 0.212684 0.218160 0.223682 0.229249 0.234859 0.240511 0.246203 0.251933 0.257699 0.263502 0.269338 0.275207 0.281106 0.287036 0.292994 0.298980 0.304991 0.311027 0.317087 0.323169 0.329272 0.335396 0.341538 0.347699 0.353877 0.360071 0.366280 0.372504 0.378741 0.384990 0.391251 0.397523 0.403805 0.410097 0.416398 0.422706 0.429022 0.435344 0.441672 0.448006 0.454345 0.460688 0.467034 0.473384 0.479736 0.486091 0.492447 0.498804 0.505162 0.511520 0.517878 0.524235 0.530591 0.536946 0.543299 0.549649 0.555996 0.562341 0.051731 0.053722 0.055823 0.058032 0.060348 0.062773 0.065304 0.067941 0.070684 0.073531 0.076482 0.079536 0.082690 0.085945 0.089298 0.092749 0.096296 0.099938 0.103673 0.107499 0.111415 0.115418 0.119509 0.123684 0.127941 0.132280 0.136698 0.141194 0.145765 0.150409 0.155125 0.159912 0.164766 0.169686 0.174671 0.179717 0.184825 0.189991 0.195214 0.200492 0.205824 0.211207 0.216640 0.222121 0.227648 0.233220 0.238836 0.244492 0.250189 0.255924 0.261696 0.267504 0.273345 0.279219 0.285124 0.291059 0.297023 0.303013 0.309030 0.315071 0.321136 0.327223 0.333331 0.339460 0.345607 0.351772 0.357955 0.364153 0.370367 0.376595 0.382836 0.389089 0.395354 0.401630 0.407916 0.414210 0.420514 0.426825 0.433143 0.439468 0.445799 0.452134 0.458475 0.464819 0.471167 0.477517 0.483870 0.490225 0.496581 0.502937 0.509294 0.515651 0.522008 0.528363 0.534717 0.541069 0.547418 0.553765 0.560109 0.566449 0.055459 0.057464 0.059577 0.061799 0.064128 0.066564 0.069106 0.071754 0.074508 0.077365 0.080326 0.083388 0.086552 0.089815 0.093177 0.096636 0.100191 0.103840 0.107582 0.111415 0.115337 0.119347 0.123444 0.127625 0.131889 0.136233 0.140657 0.145158 0.149734 0.154384 0.159105 0.163896 0.168755 0.173681 0.178670 0.183722 0.188834 0.194005 0.199233 0.204516 0.209852 0.215240 0.220678 0.226163 0.231696 0.237273 0.242893 0.248554 0.254256 0.259996 0.265773 0.271585 0.277432 0.283311 0.289221 0.295161 0.301129 0.307124 0.313146 0.319192 0.325261 0.331353 0.337466 0.343599 0.349751 0.355920 0.362107 0.368310 0.374528 0.380759 0.387004 0.393261 0.399530 0.405809 0.412098 0.418395 0.424702 0.431015 0.437336 0.443663 0.449995 0.456332 0.462674 0.469019 0.475368 0.481719 0.488072 0.494426 0.500782 0.507138 0.513493 0.519849 0.526203 0.532556 0.538908 0.545257 0.551603 0.557946 0.564286 0.570621 0.059277 0.061295 0.063422 0.065656 0.067997 0.070444 0.072998 0.075657 0.078421 0.081288 0.084258 0.087330 0.090503 0.093775 0.097145 0.100612 0.104174 0.107830 0.111579 0.115418 0.119347 0.123364 0.127467 0.131653 0.135923 0.140273 0.144702 0.149208 0.153789 0.158443 0.163170 0.167966 0.172829 0.177759 0.182753 0.187810 0.192926 0.198102 0.203334 0.208622 0.213962 0.219355 0.224797 0.230287 0.235824 0.241405 0.247030 0.252696 0.258402 0.264147 0.269928 0.275745 0.281596 0.287480 0.293394 0.299339 0.305311 0.311311 0.317337 0.323388 0.329462 0.335558 0.341675 0.347812 0.353968 0.360142 0.366333 0.372540 0.378761 0.384996 0.391245 0.397505 0.403777 0.410059 0.416351 0.422651 0.428960 0.435276 0.441598 0.447927 0.454261 0.460599 0.466942 0.473288 0.479637 0.485988 0.492341 0.498695 0.505049 0.511404 0.517758 0.524112 0.530464 0.536815 0.543163 0.549509 0.555851 0.562190 0.568525 0.574856 0.063183 0.065215 0.067354 0.069601 0.071954 0.074413 0.076978 0.079648 0.082422 0.085299 0.088279 0.091360 0.094541 0.097822 0.101200 0.104674 0.108244 0.111907 0.115663 0.119509 0.123444 0.127467 0.131575 0.135767 0.140042 0.144397 0.148831 0.153342 0.157928 0.162587 0.167318 0.172119 0.176987 0.181921 0.186919 0.191980 0.197101 0.202280 0.207517 0.212808 0.218153 0.223550 0.228996 0.234490 0.240031 0.245617 0.251246 0.256916 0.262626 0.268375 0.274161 0.279982 0.285837 0.291725 0.297644 0.303593 0.309570 0.315574 0.321604 0.327658 0.333736 0.339837 0.345958 0.352099 0.358259 0.364437 0.370631 0.376841 0.383066 0.389305 0.395556 0.401820 0.408095 0.414379 0.420674 0.426977 0.433287 0.439605 0.445930 0.452260 0.458595 0.464934 0.471278 0.477624 0.483973 0.490324 0.496676 0.503029 0.509383 0.515736 0.522088 0.528440 0.534790 0.541137 0.547482 0.553824 0.560162 0.566497 0.572827 0.579153 0.067175 0.069220 0.071372 0.073632 0.075997 0.078468 0.081044 0.083725 0.086509 0.089396 0.092385 0.095475 0.098665 0.101954 0.105340 0.108822 0.112399 0.116069 0.119831 0.123684 0.127625 0.131653 0.135767 0.139965 0.144245 0.148605 0.153044 0.157559 0.162150 0.166813 0.171549 0.176353 0.181225 0.186164 0.191166 0.196230 0.201355 0.206539 0.211779 0.217075 0.222423 0.227824 0.233274 0.238772 0.244317 0.249906 0.255539 0.261213 0.266927 0.272680 0.278470 0.284295 0.290154 0.296046 0.301968 0.307921 0.313902 0.319910 0.325944 0.332003 0.338084 0.344188 0.350313 0.356458 0.362622 0.368803 0.375001 0.381214 0.387442 0.393684 0.399938 0.406205 0.412482 0.418769 0.425066 0.431371 0.437683 0.444003 0.450329 0.456660 0.462996 0.469336 0.475680 0.482026 0.488375 0.494725 0.501077 0.507429 0.513781 0.520132 0.526483 0.532832 0.539178 0.545523 0.551864 0.558202 0.564536 0.570866 0.577191 0.583511 0.071250 0.073309 0.075475 0.077747 0.080124 0.082607 0.085194 0.087886 0.090680 0.093577 0.096576 0.099675 0.102873 0.106170 0.109564 0.113053 0.116637 0.120314 0.124083 0.127941 0.131889 0.135923 0.140042 0.144245 0.148529 0.152894 0.157338 0.161858 0.166453 0.171120 0.175860 0.180668 0.185544 0.190486 0.195492 0.200560 0.205689 0.210876 0.216120 0.221419 0.226771 0.232175 0.237629 0.243130 0.248679 0.254272 0.259908 0.265586 0.271304 0.277060 0.282853 0.288682 0.294545 0.300440 0.306367 0.312323 0.318308 0.324319 0.330357 0.336419 0.342504 0.348612 0.354740 0.360888 0.367055 0.373240 0.379441 0.385657 0.391888 0.398133 0.404390 0.410658 0.416938 0.423227 0.429526 0.435833 0.442147 0.448468 0.454795 0.461127 0.467464 0.473804 0.480148 0.486494 0.492842 0.499192 0.505542 0.511893 0.518243 0.524592 0.530940 0.537286 0.543630 0.549970 0.556308 0.562641 0.568971 0.575295 0.581615 0.587929 0.075408 0.077481 0.079660 0.081944 0.084334 0.086828 0.089426 0.092129 0.094933 0.097840 0.100848 0.103956 0.107163 0.110468 0.113869 0.117366 0.120957 0.124641 0.128416 0.132280 0.136233 0.140273 0.144397 0.148605 0.152894 0.157264 0.161712 0.166236 0.170835 0.175506 0.180249 0.185062 0.189941 0.194887 0.199896 0.204968 0.210100 0.215290 0.220537 0.225840 0.231195 0.236602 0.242059 0.247564 0.253116 0.258712 0.264352 0.270033 0.275754 0.281514 0.287311 0.293143 0.299009 0.304908 0.310838 0.316797 0.322785 0.328800 0.334841 0.340906 0.346995 0.353106 0.359237 0.365389 0.371559 0.377746 0.383950 0.390169 0.396403 0.402650 0.408909 0.415180 0.421462 0.427753 0.434053 0.440361 0.446677 0.452999 0.459327 0.465660 0.471997 0.478337 0.484681 0.491026 0.497374 0.503722 0.510071 0.516420 0.522768 0.529115 0.535460 0.541803 0.548143 0.554479 0.560812 0.567141 0.573465 0.579785 0.586098 0.592406 0.079647 0.081733 0.083925 0.086222 0.088623 0.091129 0.093739 0.096452 0.099267 0.102183 0.105201 0.108317 0.111533 0.114846 0.118255 0.121759 0.125357 0.129047 0.132828 0.136698 0.140657 0.144702 0.148831 0.153044 0.157338 0.161712 0.166163 0.170692 0.175294 0.179970 0.184716 0.189532 0.194415 0.199364 0.204377 0.209452 0.214587 0.219780 0.225030 0.230336 0.235694 0.241104 0.246564 0.252072 0.257627 0.263226 0.268869 0.274553 0.280278 0.286040 0.291840 0.297675 0.303545 0.309447 0.315380 0.321342 0.327333 0.333352 0.339395 0.345464 0.351555 0.357669 0.363804 0.369958 0.376130 0.382320 0.388527 0.394749 0.400985 0.407234 0.413495 0.419768 0.426052 0.432345 0.438646 0.444956 0.451272 0.457595 0.463924 0.470257 0.476594 0.482934 0.489277 0.495622 0.501968 0.508315 0.514663 0.521009 0.527355 0.533699 0.540041 0.546380 0.552716 0.559049 0.565377 0.571701 0.578020 0.584333 0.590640 0.596941 0.083963 0.086063 0.088268 0.090578 0.092991 0.095509 0.098130 0.100853 0.103679 0.106605 0.109631 0.112757 0.115981 0.119301 0.122718 0.126229 0.129834 0.133530 0.137317 0.141194 0.145158 0.149208 0.153342 0.157559 0.161858 0.166236 0.170692 0.175224 0.179830 0.184509 0.189259 0.194078 0.198964 0.203916 0.208932 0.214010 0.219148 0.224344 0.229597 0.234905 0.240267 0.245680 0.251142 0.256653 0.262210 0.267813 0.273458 0.279145 0.284872 0.290638 0.296441 0.302279 0.308151 0.314056 0.319991 0.325957 0.331951 0.337972 0.344019 0.350090 0.356184 0.362301 0.368438 0.374594 0.380770 0.386962 0.393171 0.399395 0.405633 0.411884 0.418148 0.424422 0.430707 0.437001 0.443304 0.449615 0.455932 0.462255 0.468584 0.474917 0.481254 0.487594 0.493936 0.500280 0.506625 0.512970 0.519316 0.525660 0.532003 0.538344 0.544682 0.551018 0.557350 0.563678 0.570001 0.576319 0.582632 0.588939 0.595240 0.601534 0.088355 0.090469 0.092687 0.095010 0.097436 0.099965 0.102597 0.105331 0.108167 0.111103 0.114138 0.117272 0.120505 0.123833 0.127257 0.130776 0.134387 0.138090 0.141883 0.145765 0.149734 0.153789 0.157928 0.162150 0.166453 0.170835 0.175294 0.179830 0.184440 0.189122 0.193876 0.198698 0.203587 0.208542 0.213560 0.218641 0.223782 0.228981 0.234236 0.239547 0.244911 0.250326 0.255792 0.261305 0.266865 0.272470 0.278118 0.283807 0.289537 0.295305 0.301111 0.306951 0.312826 0.318734 0.324672 0.330640 0.336637 0.342660 0.348710 0.354783 0.360880 0.366999 0.373139 0.379298 0.385475 0.391670 0.397881 0.404107 0.410346 0.416599 0.422864 0.429141 0.435427 0.441722 0.448026 0.454337 0.460655 0.466979 0.473307 0.479640 0.485976 0.492316 0.498657 0.504999 0.511343 0.517686 0.524029 0.530370 0.536710 0.543048 0.549383 0.555714 0.562042 0.568365 0.574683 0.580995 0.587302 0.593603 0.599896 0.606183 0.092822 0.094950 0.097181 0.099516 0.101955 0.104496 0.107139 0.109883 0.112729 0.115674 0.118719 0.121862 0.125103 0.128439 0.131870 0.135396 0.139014 0.142723 0.146522 0.150409 0.154384 0.158443 0.162587 0.166813 0.171120 0.175506 0.179970 0.184509 0.189122 0.193808 0.198564 0.203389 0.208282 0.213239 0.218260 0.223343 0.228486 0.233688 0.238946 0.244259 0.249626 0.255043 0.260511 0.266027 0.271589 0.277196 0.282846 0.288538 0.294271 0.300041 0.305849 0.311692 0.317569 0.323479 0.329420 0.335390 0.341389 0.347415 0.353467 0.359543 0.365642 0.371763 0.377905 0.384066 0.390246 0.396442 0.402655 0.408882 0.415124 0.421379 0.427645 0.433922 0.440209 0.446506 0.452810 0.459122 0.465440 0.471763 0.478092 0.484424 0.490760 0.497098 0.503438 0.509779 0.516120 0.522461 0.528801 0.535140 0.541477 0.547811 0.554142 0.560468 0.566791 0.573109 0.579421 0.585728 0.592028 0.598322 0.604609 0.610887 0.097362 0.099503 0.101748 0.104095 0.106546 0.109098 0.111753 0.114508 0.117364 0.120319 0.123373 0.126524 0.129773 0.133117 0.136556 0.140088 0.143712 0.147428 0.151233 0.155125 0.159105 0.163170 0.167318 0.171549 0.175860 0.180249 0.184716 0.189259 0.193876 0.198564 0.203323 0.208151 0.213046 0.218006 0.223030 0.228115 0.233261 0.238465 0.243725 0.249040 0.254409 0.259829 0.265299 0.270817 0.276381 0.281990 0.287643 0.293337 0.299071 0.304844 0.310654 0.316499 0.322379 0.328290 0.334234 0.340206 0.346207 0.352236 0.358289 0.364367 0.370469 0.376592 0.382735 0.388898 0.395080 0.401278 0.407492 0.413721 0.419964 0.426220 0.432488 0.438766 0.445054 0.451351 0.457656 0.463967 0.470285 0.476609 0.482937 0.489268 0.495603 0.501940 0.508278 0.514617 0.520956 0.527295 0.533632 0.539968 0.546301 0.552631 0.558957 0.565280 0.571597 0.577909 0.584216 0.590516 0.596810 0.603096 0.609375 0.615646 0.101971 0.104126 0.106384 0.108745 0.111207 0.113772 0.116437 0.119203 0.122069 0.125033 0.128096 0.131257 0.134513 0.137865 0.141311 0.144851 0.148481 0.152203 0.156013 0.159912 0.163896 0.167966 0.172119 0.176353 0.180668 0.185062 0.189532 0.194078 0.198698 0.203389 0.208151 0.212982 0.217879 0.222842 0.227868 0.232955 0.238103 0.243309 0.248572 0.253889 0.259259 0.264681 0.270153 0.275673 0.281239 0.286851 0.292505 0.298201 0.303938 0.309712 0.315524 0.321372 0.327253 0.333167 0.339112 0.345087 0.351090 0.357120 0.363175 0.369255 0.375358 0.381483 0.387629 0.393793 0.399976 0.406176 0.412392 0.418622 0.424866 0.431123 0.437391 0.443670 0.449959 0.456256 0.462561 0.468873 0.475191 0.481514 0.487841 0.494172 0.500505 0.506840 0.513177 0.519514 0.525850 0.532186 0.538520 0.544852 0.551182 0.557507 0.563829 0.570146 0.576458 0.582765 0.589065 0.595359 0.601646 0.607925 0.614196 0.620458 0.106649 0.108818 0.111089 0.113463 0.115937 0.118513 0.121190 0.123966 0.126842 0.129816 0.132889 0.136057 0.139322 0.142682 0.146135 0.149681 0.153319 0.157046 0.160862 0.164766 0.168755 0.172829 0.176987 0.181225 0.185544 0.189941 0.194415 0.198964 0.203587 0.208282 0.213046 0.217879 0.222779 0.227744 0.232772 0.237862 0.243012 0.248220 0.253484 0.258803 0.264176 0.269599 0.275073 0.280595 0.286163 0.291776 0.297432 0.303130 0.308868 0.314645 0.320458 0.326308 0.332191 0.338106 0.344053 0.350030 0.356035 0.362066 0.368124 0.374205 0.380310 0.386437 0.392583 0.398750 0.404934 0.411135 0.417352 0.423583 0.429828 0.436086 0.442355 0.448635 0.454923 0.461221 0.467526 0.473837 0.480155 0.486477 0.492803 0.499133 0.505465 0.511798 0.518132 0.524467 0.530801 0.537134 0.543464 0.549793 0.556118 0.562439 0.568756 0.575068 0.581374 0.587675 0.593968 0.600255 0.606534 0.612806 0.619068 0.625322 0.111393 0.113576 0.115861 0.118247 0.120734 0.123321 0.126009 0.128796 0.131682 0.134666 0.13