# vtk DataFile Version 3.0
vtk output
ASCII
DATASET STRUCTURED_POINTS
DIMENSIONS 100 100 1
SPACING 0.010101 0.010101 0
ORIGIN 0.000000 0.000000 0
POINT_DATA 10000
SCALARS RTData float
LOOKUP_TABLE default
-0.000000 0.006356 0.012860 0.019510 0.026306 0.033247 0.040331 0.047558 0.054927 0.062436 0.070084 0.077869 0.085789 0.093842 0.102028 0.110343 0.118785 0.127353 0.136044 0.144856 0.153786 0.162832 0.171991 0.181261 0.190640 0.200124 0.209710 0.219397 0.229181 0.239059 0.249030 0.259089 0.269233 0.279462 0.289770 0.300155 0.310615 0.321147 0.331747 0.342413 0.353142 0.363931 0.374777 0.385677 0.396629 0.407629 0.418675 0.429763 0.440892 0.452058 0.463258 0.474489 0.485750 0.497036 0.508345 0.519675 0.531023 0.542386 0.553760 0.565145 0.576536 0.587931 0.599328 0.610724 0.622116 0.633501 0.644878 0.656242 0.667593 0.678927 0.690241 0.701534 0.712803 0.724045 0.735258 0.746439 0.757586 0.768698 0.779771 0.790803 0.801793 0.812738 0.823635 0.834484 0.845281 0.856026 0.866716 0.877349 0.887924 0.898440 0.908893 0.919284 0.929611 0.939872 0.950067 0.960193 0.970251 0.980238 0.990155 1.000000 -0.002854 0.003514 0.010030 0.016693 0.023502 0.030456 0.037555 0.044797 0.052181 0.059705 0.067369 0.075170 0.083106 0.091177 0.099380 0.107713 0.116174 0.124760 0.133470 0.142302 0.151251 0.160318 0.169498 0.178789 0.188188 0.197694 0.207302 0.217011 0.226818 0.236719 0.246712 0.256795 0.266963 0.277215 0.287548 0.297957 0.308442 0.318999 0.329624 0.340315 0.351069 0.361884 0.372756 0.383682 0.394659 0.405686 0.416758 0.427873 0.439028 0.450220 0.461447 0.472705 0.483992 0.495305 0.506641 0.517998 0.529372 0.540762 0.552163 0.563575 0.574992 0.586414 0.597838 0.609260 0.620678 0.632090 0.643493 0.654883 0.666260 0.677620 0.688960 0.700278 0.711572 0.722839 0.734077 0.745283 0.756456 0.767591 0.778689 0.789745 0.800758 0.811726 0.822647 0.833519 0.844339 0.855106 0.865818 0.876474 0.887071 0.897607 0.908082 0.918494 0.928841 0.939123 0.949337 0.959483 0.969560 0.979566 0.989502 0.999365 -0.005631 0.000749 0.007277 0.013952 0.020774 0.027742 0.034854 0.042110 0.049509 0.057048 0.064727 0.072543 0.080496 0.088583 0.096803 0.105153 0.113632 0.122236 0.130964 0.139814 0.148783 0.157869 0.167069 0.176380 0.185800 0.195326 0.204955 0.214686 0.224514 0.234437 0.244452 0.254557 0.264748 0.275023 0.285379 0.295812 0.306320 0.316901 0.327550 0.338265 0.349044 0.359883 0.370780 0.381731 0.392733 0.403785 0.414882 0.426022 0.437203 0.448421 0.459673 0.470957 0.482270 0.493608 0.504970 0.516353 0.527753 0.539168 0.550596 0.562033 0.573476 0.584924 0.596373 0.607821 0.619264 0.630701 0.642129 0.653545 0.664947 0.676331 0.687696 0.699039 0.710358 0.721649 0.732911 0.744141 0.755337 0.766497 0.777617 0.788697 0.799733 0.810724 0.821667 0.832561 0.843404 0.854193 0.864926 0.875603 0.886221 0.896778 0.907274 0.917706 0.928073 0.938374 0.948608 0.958773 0.968869 0.978894 0.988847 0.998729 -0.008330 -0.001939 0.004601 0.011288 0.018122 0.025103 0.032229 0.039498 0.046910 0.054464 0.062158 0.069989 0.077958 0.086061 0.094297 0.102663 0.111159 0.119780 0.128526 0.137394 0.146381 0.155485 0.164704 0.174034 0.183474 0.193020 0.202669 0.212420 0.222269 0.232213 0.242249 0.252376 0.262589 0.272885 0.283263 0.293719 0.304250 0.314853 0.325525 0.336264 0.347066 0.357929 0.368849 0.379824 0.390851 0.401926 0.413048 0.424212 0.435417 0.446660 0.457936 0.469245 0.480583 0.491946 0.503333 0.514740 0.526165 0.537605 0.549058 0.560519 0.571988 0.583460 0.594934 0.606406 0.617874 0.629336 0.640788 0.652228 0.663654 0.675062 0.686451 0.697818 0.709160 0.720475 0.731760 0.743013 0.754232 0.765414 0.776557 0.787659 0.798718 0.809731 0.820696 0.831611 0.842475 0.853285 0.864040 0.874737 0.885375 0.895953 0.906468 0.916920 0.927307 0.937627 0.947879 0.958063 0.968177 0.978220 0.988192 0.998091 -0.010953 -0.004550 0.002001 0.008700 0.015546 0.022539 0.029678 0.036961 0.044386 0.051954 0.059662 0.067508 0.075491 0.083609 0.091861 0.100243 0.108755 0.117393 0.126156 0.135041 0.144045 0.153167 0.162404 0.171752 0.181211 0.190775 0.200444 0.210214 0.220083 0.230047 0.240104 0.250251 0.260484 0.270802 0.281201 0.291678 0.302231 0.312856 0.323550 0.334311 0.345136 0.356021 0.366964 0.377962 0.389011 0.400110 0.411255 0.422443 0.433671 0.444937 0.456238 0.467570 0.478931 0.490319 0.501729 0.513160 0.524609 0.536073 0.547549 0.559035 0.570527 0.582023 0.593520 0.605016 0.616508 0.627993 0.639468 0.650932 0.662381 0.673812 0.685224 0.696614 0.707978 0.719316 0.730624 0.741899 0.753140 0.764344 0.775509 0.786633 0.797712 0.808746 0.819733 0.830669 0.841553 0.852384 0.863158 0.873876 0.884534 0.895131 0.905666 0.916137 0.926542 0.936881 0.947152 0.957354 0.967486 0.977547 0.987536 0.997452 -0.013499 -0.007085 -0.000523 0.006188 0.013046 0.020051 0.027202 0.034497 0.041936 0.049517 0.057238 0.065099 0.073096 0.081229 0.089495 0.097893 0.106420 0.115074 0.123853 0.132754 0.141775 0.150914 0.160168 0.169534 0.179010 0.188593 0.198280 0.208069 0.217956 0.227939 0.238016 0.248182 0.258435 0.268773 0.279193 0.289690 0.300264 0.310909 0.321625 0.332407 0.343253 0.354160 0.365125 0.376144 0.387216 0.398337 0.409504 0.420714 0.431965 0.443253 0.454577 0.465931 0.477315 0.488726 0.500159 0.511613 0.523085 0.534571 0.546070 0.557579 0.569094 0.580612 0.592132 0.603651 0.615165 0.626673 0.638171 0.649657 0.661128 0.672582 0.684016 0.695427 0.706814 0.718173 0.729502 0.740799 0.752061 0.763287 0.774473 0.785617 0.796717 0.807772 0.818778 0.829735 0.840639 0.851489 0.862283 0.873020 0.883697 0.894313 0.904867 0.915356 0.925780 0.936137 0.946426 0.956645 0.966795 0.976873 0.986879 0.996812 -0.015968 -0.009544 -0.002971 0.003751 0.010621 0.017637 0.024800 0.032108 0.039559 0.047153 0.054888 0.062761 0.070773 0.078919 0.087200 0.095612 0.104154 0.112823 0.121617 0.130534 0.139571 0.148726 0.157996 0.167379 0.176872 0.186472 0.196176 0.205983 0.215888 0.225890 0.235984 0.246169 0.256442 0.266799 0.277237 0.287755 0.298348 0.309013 0.319749 0.330551 0.341418 0.352345 0.363331 0.374371 0.385464 0.396606 0.407794 0.419026 0.430298 0.441608 0.452953 0.464330 0.475735 0.487167 0.498623 0.510099 0.521592 0.533101 0.544622 0.556152 0.567688 0.579229 0.590771 0.602311 0.613847 0.625377 0.636896 0.648404 0.659896 0.671371 0.682826 0.694259 0.705666 0.717046 0.728396 0.739714 0.750997 0.762242 0.773448 0.784612 0.795733 0.806807 0.817833 0.828809 0.839732 0.850601 0.861415 0.872170 0.882866 0.893500 0.904072 0.914579 0.925020 0.935395 0.945701 0.955938 0.966104 0.976199 0.986222 0.996171 -0.018361 -0.011927 -0.005343 0.001390 0.008270 0.015298 0.022473 0.029792 0.037256 0.044862 0.052609 0.060496 0.068520 0.076680 0.084974 0.093400 0.101956 0.110639 0.119448 0.128380 0.137432 0.146602 0.155888 0.165287 0.174796 0.184412 0.194133 0.203957 0.213879 0.223898 0.234010 0.244213 0.254503 0.264878 0.275335 0.285871 0.296483 0.307167 0.317922 0.328744 0.339630 0.350577 0.361582 0.372643 0.383755 0.394918 0.406126 0.417378 0.428671 0.440002 0.451367 0.462765 0.474191 0.485644 0.497120 0.508617 0.520132 0.531661 0.543203 0.554754 0.566312 0.577873 0.589436 0.600997 0.612554 0.624104 0.635644 0.647172 0.658685 0.670181 0.681656 0.693109 0.704536 0.715936 0.727306 0.738643 0.749946 0.761211 0.772436 0.783620 0.794759 0.805852 0.816897 0.827892 0.838834 0.849721 0.860552 0.871326 0.882039 0.892692 0.903281 0.913805 0.924264 0.934656 0.944979 0.955232 0.965415 0.975526 0.985565 0.995530 -0.020678 -0.014234 -0.007640 -0.000897 0.005994 0.013033 0.020219 0.027550 0.035025 0.042643 0.050402 0.058301 0.066337 0.074510 0.082817 0.091257 0.099826 0.108523 0.117345 0.126291 0.135358 0.144543 0.153843 0.163257 0.172781 0.182413 0.192150 0.201990 0.211928 0.221963 0.232092 0.242312 0.252619 0.263012 0.273486 0.284039 0.294669 0.305372 0.316145 0.326985 0.337889 0.348855 0.359879 0.370959 0.382091 0.393272 0.404500 0.415772 0.427084 0.438434 0.449819 0.461237 0.472683 0.484156 0.495652 0.507168 0.518703 0.530253 0.541814 0.553385 0.564963 0.576545 0.588127 0.599708 0.611285 0.622855 0.634415 0.645962 0.657495 0.669010 0.680505 0.691977 0.703424 0.714843 0.726232 0.737588 0.748909 0.760193 0.771437 0.782639 0.793797 0.804908 0.815971 0.826984 0.837943 0.848849 0.859698 0.870488 0.881219 0.891888 0.902494 0.913036 0.923511 0.933919 0.944259 0.954529 0.964728 0.974855 0.984909 0.994890 -0.022921 -0.016467 -0.009863 -0.003110 0.003792 0.010842 0.018038 0.025380 0.032866 0.040495 0.048266 0.056177 0.064225 0.072410 0.080730 0.089181 0.097763 0.106473 0.115309 0.124268 0.133349 0.142547 0.151862 0.161290 0.170829 0.180475 0.190227 0.200082 0.210035 0.220086 0.230231 0.240466 0.250790 0.261199 0.271690 0.282260 0.292906 0.303626 0.314416 0.325274 0.336196 0.347180 0.358222 0.369319 0.380469 0.391669 0.402915 0.414205 0.425536 0.436905 0.448309 0.459745 0.471211 0.482702 0.494217 0.505753 0.517307 0.528875 0.540456 0.552046 0.563643 0.575244 0.586845 0.598445 0.610041 0.621630 0.633209 0.644775 0.656326 0.667860 0.679374 0.690864 0.702330 0.713767 0.725174 0.736549 0.747888 0.759190 0.770451 0.781671 0.792846 0.803975 0.815056 0.826085 0.837062 0.847984 0.858850 0.869658 0.880405 0.891091 0.901713 0.912271 0.922763 0.933187 0.943542 0.953828 0.964042 0.974185 0.984254 0.994251 -0.025089 -0.018626 -0.012012 -0.005249 0.001663 0.008723 0.015929 0.023282 0.030779 0.038419 0.046201 0.054122 0.062182 0.070379 0.078710 0.087174 0.095768 0.104490 0.113338 0.122310 0.131403 0.140615 0.149943 0.159385 0.168937 0.178598 0.188364 0.198232 0.208201 0.218266 0.228425 0.238676 0.249015 0.259439 0.269946 0.280532 0.291194 0.301931 0.312737 0.323611 0.334550 0.345550 0.356609 0.367724 0.378891 0.390108 0.401372 0.412680 0.424029 0.435415 0.446837 0.458291 0.469774 0.481284 0.492817 0.504371 0.515943 0.527529 0.539128 0.550737 0.562352 0.573971 0.585590 0.597209 0.608822 0.620429 0.632026 0.643610 0.655180 0.666731 0.678262 0.689771 0.701254 0.712709 0.724133 0.735525 0.746881 0.758200 0.769479 0.780716 0.791908 0.803054 0.814151 0.825197 0.836190 0.847129 0.858011 0.868834 0.879598 0.890300 0.900938 0.911511 0.922019 0.932458 0.942829 0.953130 0.963359 0.973517 0.983602 0.993613 -0.027184 -0.020711 -0.014088 -0.007315 -0.000394 0.006676 0.013893 0.021255 0.028762 0.036413 0.044205 0.052137 0.060208 0.068416 0.076758 0.085233 0.093839 0.102572 0.111433 0.120417 0.129522 0.138746 0.148086 0.157541 0.167106 0.176780 0.186559 0.196441 0.206423 0.216502 0.226676 0.236941 0.247294 0.257733 0.268254 0.278855 0.289533 0.300284 0.311107 0.321996 0.332951 0.343967 0.355042 0.366173 0.377357 0.388590 0.399871 0.411195 0.422560 0.433964 0.445403 0.456874 0.468374 0.479901 0.491451 0.503022 0.514611 0.526215 0.537832 0.549457 0.561089 0.572726 0.584363 0.595998 0.607629 0.619253 0.630867 0.642468 0.654055 0.665623 0.677172 0.688697 0.700196 0.711668 0.723109 0.734518 0.745891 0.757226 0.768521 0.779774 0.790983 0.802144 0.813257 0.824319 0.835328 0.846283 0.857180 0.868019 0.878798 0.889515 0.900169 0.910757 0.921280 0.931734 0.942120 0.952435 0.962680 0.972852 0.982951 0.992976 -0.029205 -0.022723 -0.016091 -0.009309 -0.002378 0.004701 0.011927 0.019299 0.026816 0.034476 0.042278 0.050221 0.058302 0.066520 0.074873 0.083359 0.091975 0.100720 0.109591 0.118586 0.127703 0.136939 0.146291 0.155758 0.165335 0.175021 0.184813 0.194707 0.204702 0.214795 0.224981 0.235260 0.245627 0.256079 0.266615 0.277230 0.287922 0.298688 0.309524 0.320429 0.331398 0.342430 0.353520 0.364666 0.375865 0.387114 0.398410 0.409751 0.421132 0.432551 0.444006 0.455493 0.467010 0.478553 0.490119 0.501707 0.513312 0.524933 0.536565 0.548208 0.559856 0.571509 0.583162 0.594814 0.606461 0.618102 0.629732 0.641350 0.652952 0.664537 0.676101 0.687643 0.699158 0.710646 0.722103 0.733527 0.744916 0.756267 0.767578 0.778846 0.790070 0.801247 0.812375 0.823453 0.834477 0.845446 0.856359 0.867213 0.878007 0.888738 0.899407 0.910010 0.920547 0.931016 0.941416 0.951745 0.962004 0.972190 0.982304 0.992343 -0.031155 -0.024664 -0.018023 -0.011232 -0.004293 0.002796 0.010031 0.017412 0.024939 0.032608 0.040420 0.048372 0.056463 0.064691 0.073054 0.081550 0.090176 0.098932 0.107814 0.116819 0.125947 0.135194 0.144557 0.154035 0.163623 0.173321 0.183125 0.193031 0.203038 0.213143 0.223342 0.233633 0.244013 0.254478 0.265027 0.275655 0.286361 0.297140 0.307991 0.318909 0.329892 0.340938 0.352042 0.363203 0.374417 0.385681 0.396992 0.408347 0.419743 0.431178 0.442648 0.454150 0.465682 0.477240 0.488822 0.500425 0.512046 0.523682 0.535330 0.546988 0.558652 0.570320 0.581989 0.593657 0.605320 0.616976 0.628621 0.640255 0.651873 0.663473 0.675052 0.686609 0.698140 0.709643 0.721115 0.732554 0.743958 0.755324 0.766649 0.777933 0.789171 0.800363 0.811506 0.822598 0.833636 0.844620 0.855547 0.866416 0.877224 0.887970 0.898652 0.909269 0.919820 0.930303 0.940717 0.951061 0.961333 0.971533 0.981660 0.991713 -0.033033 -0.026534 -0.019885 -0.013085 -0.006137 0.000960 0.008204 0.015595 0.023130 0.030809 0.038629 0.046591 0.054691 0.062928 0.071300 0.079806 0.088442 0.097207 0.106099 0.115115 0.124252 0.133509 0.142883 0.152371 0.161971 0.171679 0.181494 0.191412 0.201430 0.211546 0.221757 0.232060 0.242451 0.252929 0.263490 0.274131 0.284849 0.295641 0.306505 0.317436 0.328433 0.339492 0.350610 0.361784 0.373011 0.384289 0.395614 0.406983 0.418394 0.429843 0.441327 0.452844 0.464390 0.475963 0.487560 0.499177 0.510813 0.522463 0.534126 0.545799 0.557478 0.569161 0.580845 0.592527 0.604204 0.615875 0.627535 0.639183 0.650816 0.662431 0.674025 0.685596 0.697141 0.708659 0.720145 0.731599 0.743017 0.754397 0.765737 0.777034 0.788287 0.799493 0.810649 0.821755 0.832808 0.843805 0.854746 0.865628 0.876450 0.887209 0.897905 0.908536 0.919101 0.929597 0.940024 0.950381 0.960667 0.970880 0.981020 0.991087 -0.034841 -0.028334 -0.021676 -0.014869 -0.007912 -0.000807 0.006446 0.013845 0.021388 0.029076 0.036905 0.044875 0.052984 0.061230 0.069611 0.078126 0.086771 0.095545 0.104446 0.113472 0.122619 0.131886 0.141269 0.150767 0.160377 0.170095 0.179920 0.189848 0.199877 0.210004 0.220226 0.230540 0.240943 0.251432 0.262004 0.272657 0.283387 0.294191 0.305066 0.316010 0.327019 0.338091 0.349221 0.360408 0.371649 0.382940 0.394278 0.405660 0.417084 0.428546 0.440044 0.451574 0.463134 0.474721 0.486331 0.497963 0.509612 0.521277 0.532954 0.544640 0.556333 0.568030 0.579728 0.591424 0.603116 0.614800 0.626474 0.638136 0.649783 0.661411 0.673019 0.684604 0.696163 0.707694 0.719195 0.730662 0.742093 0.753487 0.764840 0.776151 0.787417 0.798636 0.809806 0.820925 0.831991 0.843002 0.853956 0.864851 0.875686 0.886459 0.897168 0.907812 0.918389 0.928898 0.939339 0.949708 0.960007 0.970233 0.980386 0.990465 -0.036581 -0.030065 -0.023400 -0.016584 -0.009619 -0.002506 0.004755 0.012161 0.019713 0.027409 0.035247 0.043225 0.051342 0.059596 0.067986 0.076509 0.085163 0.093946 0.102855 0.111889 0.121045 0.130321 0.139714 0.149221 0.158840 0.168568 0.178402 0.188341 0.198379 0.208516 0.218748 0.229072 0.239486 0.249985 0.260569 0.271232 0.281973 0.292789 0.303675 0.314631 0.325651 0.336735 0.347877 0.359076 0.370329 0.381632 0.392982 0.404377 0.415813 0.427288 0.438799 0.450342 0.461915 0.473515 0.485138 0.496782 0.508445 0.520123 0.531813 0.543512 0.555218 0.566928 0.578639 0.590349 0.602053 0.613751 0.625439 0.637114 0.648773 0.660415 0.672036 0.683634 0.695206 0.706750 0.718263 0.729743 0.741188 0.752594 0.763960 0.775284 0.786563 0.797795 0.808977 0.820109 0.831188 0.842211 0.853178 0.864085 0.874933 0.885718 0.896440 0.907096 0.917686 0.928208 0.938660 0.949043 0.959354 0.969593 0.979758 0.989849 -0.038252 -0.031729 -0.025055 -0.018232 -0.011260 -0.004139 0.003130 0.010544 0.018104 0.025807 0.033653 0.041639 0.049764 0.058026 0.066423 0.074954 0.083616 0.092407 0.101325 0.110367 0.119531 0.128815 0.138217 0.147732 0.157360 0.167097 0.176940 0.186888 0.196936 0.207082 0.217323 0.227657 0.238080 0.248590 0.259183 0.269857 0.280608 0.291434 0.302331 0.313297 0.324329 0.335423 0.346577 0.357787 0.369051 0.380366 0.391728 0.403134 0.414582 0.426069 0.437592 0.449147 0.460732 0.472344 0.483979 0.495636 0.507311 0.519001 0.530703 0.542415 0.554134 0.565856 0.577580 0.589301 0.601018 0.612728 0.624429 0.636116 0.647788 0.659442 0.671075 0.682686 0.694270 0.705826 0.717352 0.728844 0.740301 0.751719 0.763098 0.774434 0.785725 0.796969 0.808163 0.819307 0.830398 0.841433 0.852412 0.863332 0.874191 0.884988 0.895722 0.906390 0.916992 0.927526 0.937991 0.948385 0.958708 0.968959 0.979136 0.989240 -0.039856 -0.033326 -0.026645 -0.019814 -0.012834 -0.005706 0.001570 0.008992 0.016559 0.024269 0.032122 0.040115 0.048248 0.056517 0.064922 0.073460 0.082130 0.090928 0.099854 0.108904 0.118076 0.127368 0.136777 0.146301 0.155936 0.165682 0.175533 0.185489 0.195546 0.205700 0.215951 0.226293 0.236726 0.247244 0.257847 0.268530 0.279291 0.290127 0.301034 0.312010 0.323052 0.334156 0.345320 0.356541 0.367816 0.379141 0.390514 0.401931 0.413391 0.424888 0.436422 0.447989 0.459585 0.471208 0.482855 0.494523 0.506210 0.517911 0.529625 0.541349 0.553079 0.564813 0.576549 0.588282 0.600011 0.611733 0.623444 0.635143 0.646827 0.658493 0.670138 0.681760 0.693356 0.704924 0.716461 0.727965 0.739433 0.750863 0.762253 0.773601 0.784903 0.796158 0.807365 0.818520 0.829622 0.840669 0.851659 0.862590 0.873461 0.884270 0.895015 0.905695 0.916308 0.926854 0.937330 0.947736 0.958071 0.968333 0.978522 0.988637 -0.041394 -0.034857 -0.028169 -0.021331 -0.014344 -0.007208 0.000074 0.007503 0.015077 0.022794 0.030654 0.038654 0.046794 0.055070 0.063482 0.072027 0.080704 0.089509 0.098442 0.107499 0.116678 0.125977 0.135394 0.144925 0.154568 0.164321 0.174180 0.184144 0.194208 0.204371 0.214630 0.224981 0.235421 0.245949 0.256560 0.267252 0.278022 0.288866 0.299783 0.310768 0.321820 0.332934 0.344107 0.355338 0.366622 0.377958 0.389341 0.400768 0.412238 0.423746 0.435290 0.446867 0.458474 0.470108 0.481766 0.493445 0.505142 0.516855 0.528580 0.540314 0.552055 0.563800 0.575547 0.587291 0.599031 0.610764 0.622487 0.634197 0.645891 0.657568 0.669224 0.680857 0.692464 0.704043 0.715591 0.727106 0.738585 0.750026 0.761427 0.772785 0.784099 0.795365 0.806582 0.817749 0.828862 0.839919 0.850920 0.861863 0.872745 0.883564 0.894320 0.905011 0.915636 0.926192 0.936680 0.947097 0.957443 0.967716 0.977916 0.988043 -0.042868 -0.036323 -0.029629 -0.022784 -0.015790 -0.008648 -0.001359 0.006077 0.013657 0.021381 0.029248 0.037255 0.045400 0.053683 0.062102 0.070653 0.079336 0.088148 0.097087 0.106151 0.115337 0.124643 0.134066 0.143604 0.153254 0.163014 0.172881 0.182851 0.192923 0.203094 0.213360 0.223718 0.234167 0.244702 0.255321 0.266021 0.276800 0.287653 0.298578 0.309572 0.320632 0.331755 0.342937 0.354177 0.365471 0.376815 0.388208 0.399645 0.411124 0.422642 0.434196 0.445783 0.457400 0.469044 0.480711 0.492401 0.504108 0.515831 0.527566 0.539311 0.551062 0.562818 0.574574 0.586329 0.598079 0.609822 0.621555 0.633276 0.644981 0.656668 0.668335 0.679978 0.691595 0.703184 0.714743 0.726268 0.737757 0.749209 0.760620 0.771989 0.783312 0.794589 0.805817 0.816993 0.828117 0.839185 0.850196 0.861149 0.872041 0.882872 0.893638 0.904340 0.914975 0.925542 0.936040 0.946468 0.956824 0.967109 0.977320 0.987457 -0.044278 -0.037727 -0.031025 -0.024174 -0.017174 -0.010025 -0.002730 0.004712 0.012299 0.020029 0.027902 0.035915 0.044066 0.052356 0.060780 0.069338 0.078027 0.086845 0.095790 0.104860 0.114052 0.123364 0.132793 0.142338 0.151994 0.161761 0.171634 0.181611 0.191690 0.201867 0.212140 0.222506 0.232961 0.243504 0.254131 0.264838 0.275624 0.286485 0.297418 0.308420 0.319488 0.330619 0.341810 0.353059 0.364361 0.375714 0.387115 0.398561 0.410049 0.421576 0.433139 0.444735 0.456361 0.468015 0.479692 0.491391 0.503107 0.514840 0.526584 0.538339 0.550100 0.561865 0.573631 0.585396 0.597156 0.608908 0.620651 0.632381 0.644096 0.655793 0.667469 0.679122 0.690750 0.702348 0.713917 0.725451 0.736951 0.748412 0.759833 0.771211 0.782545 0.793831 0.805069 0.816255 0.827388 0.838466 0.849488 0.860450 0.871353 0.882193 0.892969 0.903681 0.914326 0.924904 0.935412 0.945850 0.956217 0.966511 0.976733 0.986880 -0.045626 -0.039068 -0.032360 -0.025503 -0.018496 -0.011342 -0.004040 0.003408 0.011000 0.018737 0.026615 0.034634 0.042791 0.051086 0.059516 0.068079 0.076774 0.085598 0.094548 0.103624 0.112822 0.122140 0.131575 0.141125 0.150788 0.160560 0.170439 0.180422 0.190507 0.200691 0.210970 0.221342 0.231805 0.242354 0.252987 0.263702 0.274495 0.285363 0.296303 0.307313 0.318388 0.329527 0.340726 0.351982 0.363292 0.374653 0.386062 0.397517 0.409013 0.420549 0.432120 0.443725 0.455359 0.467021 0.478707 0.490415 0.502140 0.513882 0.525635 0.537398 0.549169 0.560943 0.572718 0.584492 0.596261 0.608023 0.619774 0.631514 0.643238 0.654944 0.666629 0.678291 0.689928 0.701536 0.713113 0.724657 0.736165 0.747636 0.759066 0.770453 0.781796 0.793092 0.804339 0.815534 0.826677 0.837764 0.848795 0.859767 0.870679 0.881529 0.892315 0.903036 0.913691 0.924278 0.934796 0.945244 0.955621 0.965926 0.976157 0.986315 -0.046912 -0.040349 -0.033635 -0.026771 -0.019759 -0.012598 -0.005291 0.002163 0.009761 0.017502 0.025386 0.033410 0.041573 0.049873 0.058308 0.066877 0.075577 0.084406 0.093362 0.102443 0.111646 0.120969 0.130409 0.139965 0.149633 0.159411 0.169295 0.179284 0.189375 0.199564 0.209849 0.220227 0.230696 0.241251 0.251891 0.262612 0.273411 0.284286 0.295233 0.306249 0.317332 0.328477 0.339684 0.350947 0.362264 0.373633 0.385050 0.396512 0.408016 0.419559 0.431138 0.442751 0.454394 0.466064 0.477758 0.489473 0.501207 0.512957 0.524719 0.536490 0.548269 0.560051 0.571835 0.583617 0.595395 0.607165 0.618925 0.630673 0.642406 0.654120 0.665814 0.677485 0.689130 0.700746 0.712332 0.723885 0.735402 0.746881 0.758320 0.769716 0.781067 0.792372 0.803627 0.814832 0.825983 0.837080 0.848119 0.859100 0.870021 0.880880 0.891675 0.902406 0.913070 0.923666 0.934194 0.944651 0.955037 0.965352 0.975593 0.985760 -0.048139 -0.041569 -0.034850 -0.027980 -0.020962 -0.013796 -0.006483 0.000975 0.008579 0.016326 0.024214 0.032244 0.040412 0.048716 0.057157 0.065730 0.074435 0.083269 0.092229 0.101315 0.110523 0.119851 0.129296 0.138857 0.148529 0.158312 0.168202 0.178196 0.188292 0.198486 0.208777 0.219161 0.229634 0.240196 0.250841 0.261568 0.272373 0.283254 0.294207 0.305229 0.316318 0.327471 0.338683 0.349953 0.361277 0.372653 0.384077 0.395546 0.407057 0.418607 0.430194 0.441814 0.453464 0.465141 0.476843 0.488566 0.500308 0.512065 0.523835 0.535614 0.547400 0.559191 0.570982 0.582772 0.594558 0.606336 0.618104 0.629860 0.641601 0.653323 0.665025 0.676704 0.688357 0.699981 0.711575 0.723136 0.734661 0.746148 0.757595 0.769000 0.780359 0.791672 0.802936 0.814148 0.825308 0.836413 0.847461 0.858451 0.869380 0.880248 0.891052 0.901791 0.912464 0.923069 0.933605 0.944072 0.954467 0.964791 0.975041 0.985218 -0.049307 -0.042732 -0.036006 -0.029132 -0.022108 -0.014937 -0.007619 -0.000155 0.007453 0.015205 0.023099 0.031133 0.039305 0.047615 0.056059 0.064637 0.073346 0.082185 0.091150 0.100240 0.109452 0.118784 0.128234 0.137799 0.147477 0.157264 0.167158 0.177157 0.187258 0.197457 0.207752 0.218141 0.228620 0.239186 0.249837 0.260569 0.271380 0.282266 0.293225 0.304253 0.315348 0.326506 0.337725 0.349001 0.360331 0.371713 0.383143 0.394619 0.406136 0.417693 0.429287 0.440914 0.452571 0.464255 0.475964 0.487694 0.499442 0.511207 0.522983 0.534770 0.546564 0.558361 0.570160 0.581957 0.593750 0.605536 0.617312 0.629075 0.640823 0.652553 0.664262 0.675948 0.687609 0.699241 0.710843 0.722411 0.733944 0.745438 0.756893 0.768305 0.779672 0.790993 0.802264 0.813485 0.824652 0.835765 0.846821 0.857819 0.868756 0.879632 0.890444 0.901192 0.911873 0.922487 0.933032 0.943507 0.953911 0.964243 0.974502 0.984688 -0.050417 -0.043837 -0.037106 -0.030226 -0.023197 -0.016021 -0.008698 -0.001230 0.006383 0.014140 0.022038 0.030076 0.038253 0.046567 0.055016 0.063598 0.072311 0.081153 0.090122 0.099216 0.108433 0.117769 0.127223 0.136792 0.146474 0.156265 0.166163 0.176167 0.186271 0.196475 0.206775 0.217168 0.227652 0.238222 0.248878 0.259615 0.270431 0.281322 0.292286 0.303319 0.314419 0.325583 0.336807 0.348089 0.359425 0.370813 0.382249 0.393730 0.405254 0.416817 0.428417 0.440050 0.451713 0.463404 0.475119 0.486856 0.498611 0.510382 0.522165 0.533959 0.545759 0.557563 0.569369 0.581173 0.592973 0.604765 0.616548 0.628318 0.640073 0.651810 0.663526 0.675219 0.686887 0.698526 0.710134 0.721710 0.733250 0.744751 0.756213 0.767632 0.779007 0.790335 0.801614 0.812842 0.824017 0.835137 0.846201 0.857206 0.868151 0.879035 0.889855 0.900610 0.911299 0.921921 0.932474 0.942958 0.953370 0.963710 0.973978 0.984172 -0.051471 -0.044885 -0.038150 -0.031265 -0.024231 -0.017051 -0.009723 -0.002250 0.005368 0.013128 0.021030 0.029073 0.037254 0.045571 0.054024 0.062610 0.071327 0.080173 0.089146 0.098244 0.107464 0.116804 0.126261 0.135834 0.145519 0.155314 0.165217 0.175224 0.185332 0.195540 0.205844 0.216241 0.226729 0.237304 0.247964 0.258705 0.269525 0.280421 0.291390 0.302428 0.313533 0.324702 0.335931 0.347218 0.358559 0.369952 0.381394 0.392880 0.404410 0.415979 0.427584 0.439223 0.450892 0.462588 0.474310 0.486052 0.497813 0.509590 0.521380 0.533180 0.544986 0.556797 0.568609 0.580419 0.592225 0.604024 0.615813 0.627589 0.639351 0.651094 0.662817 0.674517 0.686191 0.697836 0.709451 0.721033 0.732580 0.744088 0.755557 0.766983 0.778364 0.789699 0.800985 0.812220 0.823402 0.834529 0.845600 0.856612 0.867565 0.878455 0.889283 0.900046 0.910743 0.921372 0.931933 0.942424 0.952845 0.963193 0.973469 0.983671 -0.052470 -0.045879 -0.039139 -0.032249 -0.025211 -0.018026 -0.010694 -0.003217 0.004405 0.012170 0.020076 0.028122 0.036307 0.044628 0.053084 0.061674 0.070394 0.079244 0.088220 0.097321 0.106544 0.115888 0.125349 0.134925 0.144613 0.154412 0.164317 0.174328 0.184440 0.194651 0.204959 0.215360 0.225851 0.236430 0.247094 0.257839 0.268664 0.279564 0.290536 0.301579 0.312688 0.323861 0.335095 0.346387 0.357733 0.369131 0.380577 0.392069 0.403604 0.415178 0.426788 0.438432 0.450107 0.461809 0.473535 0.485283 0.497050 0.508833 0.520628 0.532433 0.544246 0.556062 0.567880 0.579696 0.591508 0.603313 0.615108 0.626890 0.638657 0.650407 0.662135 0.673841 0.685521 0.697173 0.708794 0.720382 0.731935 0.743450 0.754924 0.766357 0.777745 0.789086 0.800378 0.811619 0.822808 0.833942 0.845019 0.856039 0.866998 0.877896 0.888730 0.899500 0.910204 0.920841 0.931409 0.941908 0.952336 0.962692 0.972975 0.983185 -0.053415 -0.046819 -0.040074 -0.033180 -0.026138 -0.018948 -0.011612 -0.004131 0.003495 0.011263 0.019173 0.027222 0.035410 0.043735 0.052195 0.060787 0.069511 0.078364 0.087343 0.096447 0.105673 0.115020 0.124484 0.134063 0.143754 0.153556 0.163465 0.173478 0.183594 0.193808 0.204119 0.214523 0.225018 0.235600 0.246268 0.257017 0.267845 0.278748 0.289725 0.300772 0.311885 0.323062 0.334300 0.345596 0.356946 0.368349 0.379800 0.391296 0.402835 0.414414 0.426029 0.437678 0.449357 0.461064 0.472796 0.484549 0.496321 0.508109 0.519909 0.531720 0.543537 0.555359 0.567182 0.579004 0.590821 0.602631 0.614432 0.626220 0.637992 0.649747 0.661482 0.673193 0.684879 0.696536 0.708163 0.719757 0.731315 0.742836 0.754317 0.765755 0.777148 0.788495 0.799794 0.811041 0.822236 0.833376 0.844460 0.855486 0.866451 0.877356 0.888197 0.898974 0.909684 0.920328 0.930903 0.941409 0.951844 0.962207 0.972498 0.982716 -0.054306 -0.047706 -0.040957 -0.034059 -0.027012 -0.019819 -0.012479 -0.004994 0.002635 0.010407 0.018320 0.026373 0.034564 0.042892 0.051355 0.059950 0.068677 0.077532 0.086514 0.095621 0.104850 0.114199 0.123666 0.133248 0.142942 0.152746 0.162658 0.172674 0.182792 0.193010 0.203323 0.213731 0.224228 0.234814 0.245484 0.256237 0.267068 0.277975 0.288955 0.300005 0.311122 0.322303 0.333545 0.344845 0.356199 0.367605 0.379060 0.390561 0.402104 0.413687 0.425307 0.436960 0.448644 0.460356 0.472092 0.483850 0.495626 0.507419 0.519224 0.531039 0.542862 0.554688 0.566516 0.578343 0.590165 0.601980 0.613786 0.625579 0.637357 0.649117 0.660856 0.672573 0.684264 0.695927 0.707559 0.719158 0.730722 0.742248 0.753734 0.765177 0.776577 0.787929 0.799233 0.810486 0.821687 0.832833 0.843923 0.854954 0.865926 0.876837 0.887684 0.898467 0.909184 0.919834 0.930416 0.940929 0.951370 0.961741 0.972038 0.982263 -0.055146 -0.048542 -0.041788 -0.034886 -0.027836 -0.020639 -0.013295 -0.005807 0.001826 0.009601 0.017517 0.025573 0.033767 0.042098 0.050563 0.059161 0.067890 0.076748 0.085733 0.094843 0.104074 0.113426 0.122895 0.132479 0.142176 0.151982 0.161896 0.171915 0.182036 0.192256 0.202572 0.212982 0.223482 0.234071 0.244744 0.255499 0.266333 0.277244 0.288227 0.299280 0.310400 0.321585 0.332830 0.344133 0.355491 0.366901 0.378360 0.389864 0.401411 0.412998 0.424622 0.436279 0.447967 0.459683 0.471423 0.483185 0.494966 0.506763 0.518573 0.530392 0.542219 0.554050 0.565883 0.577714 0.589541 0.601360 0.613171 0.624968 0.636751 0.648515 0.660260 0.671981 0.683677 0.695344 0.706982 0.718586 0.730154 0.741685 0.753176 0.764625 0.776029 0.787387 0.798697 0.809955 0.821161 0.832313 0.843408 0.854445 0.865423 0.876339 0.887192 0.897981 0.908704 0.919361 0.929949 0.940467 0.950916 0.961292 0.971597 0.981828 -0.055935 -0.049327 -0.042570 -0.035664 -0.028610 -0.021409 -0.014062 -0.006571 0.001065 0.008843 0.016762 0.024821 0.033018 0.041351 0.049819 0.058420 0.067151 0.076012 0.084999 0.094110 0.103344 0.112698 0.122169 0.131755 0.141454 0.151263 0.161179 0.171200 0.181323 0.191545 0.201864 0.212276 0.222779 0.233370 0.244046 0.254803 0.265640 0.276553 0.287539 0.298595 0.309719 0.320906 0.332154 0.343460 0.354822 0.366235 0.377697 0.389205 0.400755 0.412346 0.423973 0.435634 0.447326 0.459045 0.470789 0.482555 0.494340 0.506141 0.517954 0.529778 0.541609 0.553444 0.565281 0.577116 0.588947 0.600771 0.612586 0.624388 0.636175 0.647944 0.659692 0.671418 0.683118 0.694790 0.706432 0.718040 0.729614 0.741149 0.752645 0.764099 0.775508 0.786870 0.798185 0.809448 0.820659 0.831816 0.842916 0.853959 0.864941 0.875863 0.886722