# vtk DataFile Version 3.0
vtk output
ASCII
DATASET STRUCTURED_POINTS
DIMENSIONS 100 100 1
SPACING 0.010101 0.010101 0
ORIGIN 0.000000 0.000000 0
POINT_DATA 10000
SCALARS RTData float
LOOKUP_TABLE default
0.000000 0.007740 0.015569 0.023487 0.031493 0.039586 0.047766 0.056032 0.064383 0.072819 0.081337 0.089938 0.098621 0.107383 0.116226 0.125146 0.134144 0.143218 0.152367 0.161589 0.170884 0.180250 0.189686 0.199191 0.208763 0.218401 0.228103 0.237868 0.247694 0.257581 0.267526 0.277528 0.287586 0.297697 0.307861 0.318075 0.328338 0.338648 0.349004 0.359404 0.369847 0.380330 0.390852 0.401411 0.412005 0.422633 0.433293 0.443983 0.454702 0.465447 0.476217 0.487010 0.497825 0.508659 0.519511 0.530379 0.541261 0.552156 0.563062 0.573977 0.584899 0.595827 0.606759 0.617693 0.628627 0.639561 0.650491 0.661418 0.672338 0.683250 0.694154 0.705046 0.715926 0.726792 0.737643 0.748477 0.759292 0.770088 0.780862 0.791614 0.802342 0.813044 0.823720 0.834368 0.844986 0.855574 0.866131 0.876655 0.887145 0.897599 0.908018 0.918400 0.928743 0.939047 0.949311 0.959535 0.969716 0.979854 0.989949 1.000000 -0.002041 0.005710 0.013551 0.021481 0.029500 0.037606 0.045799 0.054078 0.062443 0.070892 0.079425 0.088040 0.096737 0.105515 0.114372 0.123308 0.132321 0.141411 0.150576 0.159814 0.169126 0.178509 0.187962 0.197483 0.207073 0.216728 0.226448 0.236231 0.246075 0.255980 0.265944 0.275964 0.286040 0.296170 0.306353 0.316586 0.326869 0.337198 0.347574 0.357994 0.368456 0.378959 0.389500 0.400079 0.410694 0.421342 0.432022 0.442733 0.453472 0.464237 0.475028 0.485841 0.496677 0.507531 0.518404 0.529292 0.540195 0.551111 0.562037 0.572972 0.583915 0.594863 0.605815 0.616770 0.627725 0.638678 0.649629 0.660575 0.671516 0.682448 0.693371 0.704283 0.715183 0.726069 0.736939 0.747792 0.758627 0.769441 0.780234 0.791005 0.801751 0.812472 0.823166 0.833832 0.844469 0.855075 0.865649 0.876190 0.886697 0.897169 0.907605 0.918003 0.928363 0.938684 0.948964 0.959203 0.969400 0.979554 0.989665 0.999731 -0.004042 0.003721 0.011574 0.019516 0.027547 0.035665 0.043871 0.052164 0.060541 0.069004 0.077550 0.086180 0.094891 0.103683 0.112555 0.121506 0.130535 0.139640 0.148821 0.158075 0.167403 0.176802 0.186271 0.195810 0.205416 0.215088 0.224825 0.234626 0.244488 0.254411 0.264392 0.274431 0.284526 0.294674 0.304875 0.315127 0.325428 0.335777 0.346172 0.356611 0.367092 0.377615 0.388176 0.398774 0.409408 0.420076 0.430776 0.441507 0.452266 0.463051 0.473862 0.484695 0.495550 0.506425 0.517318 0.528227 0.539150 0.550085 0.561031 0.571987 0.582949 0.593918 0.604890 0.615864 0.626839 0.637812 0.648783 0.659749 0.670709 0.681661 0.692603 0.703535 0.714453 0.725358 0.736247 0.747119 0.757973 0.768806 0.779618 0.790407 0.801171 0.811910 0.822622 0.833306 0.843960 0.854584 0.865175 0.875734 0.886258 0.896747 0.907199 0.917614 0.927990 0.938327 0.948623 0.958878 0.969090 0.979259 0.989385 0.999466 -0.006002 0.001772 0.009637 0.017591 0.025633 0.033764 0.041983 0.050288 0.058679 0.067155 0.075715 0.084358 0.093083 0.101890 0.110776 0.119742 0.128785 0.137905 0.147101 0.156372 0.165715 0.175130 0.184616 0.194171 0.203793 0.213482 0.223236 0.233054 0.242934 0.252874 0.262873 0.272929 0.283042 0.293208 0.303428 0.313698 0.324018 0.334385 0.344798 0.355256 0.365756 0.376297 0.386878 0.397496 0.408149 0.418836 0.429556 0.440305 0.451084 0.461889 0.472719 0.483572 0.494447 0.505341 0.516253 0.527182 0.538124 0.549080 0.560046 0.571021 0.582003 0.592991 0.603982 0.614976 0.625970 0.636963 0.647953 0.658938 0.669917 0.680888 0.691850 0.702800 0.713738 0.724661 0.735569 0.746459 0.757331 0.768183 0.779013 0.789820 0.800602 0.811359 0.822088 0.832790 0.843461 0.854102 0.864710 0.875285 0.885826 0.896331 0.906800 0.917231 0.927623 0.937975 0.948287 0.958557 0.968785 0.978969 0.989109 0.999205 -0.007920 -0.000135 0.007741 0.015706 0.023761 0.031904 0.040134 0.048452 0.056855 0.065344 0.073918 0.082574 0.091313 0.100133 0.109034 0.118014 0.127072 0.136207 0.145418 0.154704 0.164063 0.173493 0.182995 0.192566 0.202205 0.211910 0.221681 0.231515 0.241411 0.251369 0.261385 0.271459 0.281589 0.291773 0.302010 0.312298 0.322636 0.333021 0.343453 0.353929 0.364448 0.375008 0.385607 0.396243 0.406915 0.417621 0.428360 0.439128 0.449926 0.460750 0.471599 0.482471 0.493365 0.504279 0.515210 0.526158 0.537120 0.548094 0.559079 0.570074 0.581075 0.592082 0.603093 0.614105 0.625119 0.636130 0.647139 0.658143 0.669141 0.680130 0.691111 0.702079 0.713036 0.723977 0.734903 0.745812 0.756702 0.767571 0.778419 0.789243 0.800043 0.810817 0.821564 0.832282 0.842971 0.853628 0.864253 0.874845 0.885402 0.895923 0.906408 0.916854 0.927262 0.937630 0.947957 0.958242 0.968485 0.978684 0.988838 0.998948 -0.009797 -0.002001 0.005885 0.013862 0.021928 0.030083 0.038325 0.046655 0.055071 0.063573 0.072159 0.080829 0.089581 0.098415 0.107330 0.116324 0.125396 0.134546 0.143771 0.153072 0.162446 0.171892 0.181409 0.190995 0.200650 0.210371 0.220158 0.230009 0.239922 0.249896 0.259929 0.270020 0.280167 0.290368 0.300623 0.310928 0.321284 0.331687 0.342136 0.352630 0.363167 0.373745 0.384362 0.395017 0.405707 0.416432 0.427189 0.437976 0.448792 0.459635 0.470503 0.481394 0.492306 0.503239 0.514189 0.525155 0.536136 0.547129 0.558133 0.569146 0.580166 0.591192 0.602221 0.613252 0.624284 0.635314 0.646342 0.657364 0.668380 0.679388 0.690386 0.701373 0.712347 0.723307 0.734251 0.745177 0.756084 0.766971 0.777836 0.788678 0.799495 0.810286 0.821050 0.831785 0.842490 0.853164 0.863805 0.874413 0.884986 0.895523 0.906023 0.916485 0.926908 0.937291 0.947633 0.957932 0.968189 0.978403 0.988572 0.998695 -0.011633 -0.003827 0.004071 0.012059 0.020136 0.028302 0.036557 0.044899 0.053327 0.061841 0.070440 0.079122 0.087888 0.096735 0.105663 0.114671 0.123757 0.132921 0.142161 0.151476 0.160865 0.170326 0.179858 0.189459 0.199130 0.208867 0.218669 0.228536 0.238465 0.248455 0.258505 0.268612 0.278776 0.288994 0.299265 0.309588 0.319961 0.330381 0.340848 0.351360 0.361914 0.372510 0.383145 0.393817 0.404526 0.415268 0.426043 0.436848 0.447683 0.458544 0.469430 0.480339 0.491270 0.502221 0.513189 0.524174 0.535173 0.546184 0.557206 0.568238 0.579276 0.590320 0.601368 0.612417 0.623467 0.634515 0.645560 0.656601 0.667635 0.678661 0.689677 0.700681 0.711673 0.722650 0.733611 0.744555 0.755479 0.766383 0.777265 0.788124 0.798958 0.809765 0.820545 0.831297 0.842018 0.852708 0.863365 0.873988 0.884577 0.895129 0.905645 0.916122 0.926560 0.936957 0.947314 0.957628 0.967900 0.978127 0.988310 0.998447 -0.013427 -0.005610 0.002298 0.010296 0.018385 0.026562 0.034828 0.043182 0.051622 0.060148 0.068759 0.077454 0.086233 0.095093 0.104034 0.113056 0.122155 0.131333 0.140587 0.149916 0.159319 0.168795 0.178342 0.187958 0.197644 0.207396 0.217214 0.227096 0.237041 0.247047 0.257112 0.267236 0.277416 0.287651 0.297939 0.308278 0.318667 0.329105 0.339589 0.350117 0.360689 0.371302 0.381954 0.392644 0.403370 0.414130 0.424923 0.435746 0.446597 0.457476 0.468380 0.479307 0.490256 0.501225 0.512211 0.523214 0.534230 0.545260 0.556300 0.567349 0.578405 0.589467 0.600532 0.611600 0.622667 0.633733 0.644796 0.655854 0.666905 0.677948 0.688982 0.700004 0.711012 0.722007 0.732985 0.743945 0.754887 0.765807 0.776706 0.787581 0.798431 0.809255 0.820051 0.830818 0.841555 0.852261 0.862933 0.873572 0.884176 0.894744 0.905274 0.915766 0.926218 0.936630 0.947001 0.957329 0.967615 0.977856 0.988052 0.998203 -0.015180 -0.007353 0.000566 0.008575 0.016674 0.024862 0.033139 0.041504 0.049956 0.058494 0.067118 0.075825 0.084616 0.093489 0.102443 0.111478 0.120591 0.129782 0.139050 0.148392 0.157810 0.167299 0.176861 0.186492 0.196192 0.205959 0.215792 0.225690 0.235650 0.245671 0.255752 0.265892 0.276088 0.286338 0.296642 0.306998 0.317404 0.327858 0.338358 0.348903 0.359492 0.370121 0.380791 0.391498 0.402241 0.413018 0.423828 0.434668 0.445537 0.456433 0.467354 0.478299 0.489265 0.500251 0.511255 0.522275 0.533309 0.544356 0.555413 0.566480 0.577553 0.588633 0.599715 0.610800 0.621885 0.632968 0.644048 0.655123 0.666191 0.677251 0.688302 0.699340 0.710366 0.721377 0.732372 0.743349 0.754306 0.765243 0.776158 0.787049 0.797915 0.808755 0.819566 0.830349 0.841102 0.851822 0.862510 0.873164 0.883783 0.894365 0.904910 0.915416 0.925883 0.936309 0.946694 0.957036 0.967335 0.977590 0.987799 0.997963 -0.016891 -0.009054 -0.001125 0.006894 0.015004 0.023203 0.031491 0.039867 0.048331 0.056880 0.065515 0.074235 0.083038 0.091923 0.100890 0.109937 0.119063 0.128268 0.137549 0.146905 0.156336 0.165840 0.175415 0.185060 0.194775 0.204556 0.214404 0.224316 0.234291 0.244328 0.254424 0.264579 0.274790 0.285057 0.295377 0.305748 0.316170 0.326640 0.337156 0.347718 0.358323 0.368969 0.379654 0.390378 0.401138 0.411931 0.422758 0.433615 0.444501 0.455414 0.466352 0.477313 0.488297 0.499299 0.510320 0.521357 0.532409 0.543472 0.554547 0.565630 0.576721 0.587817 0.598917 0.610018 0.621120 0.632220 0.643316 0.654408 0.665493 0.676570 0.687636 0.698692 0.709734 0.720761 0.731772 0.742765 0.753738 0.764691 0.775622 0.786528 0.797410 0.808265 0.819092 0.829890 0.840657 0.851393 0.862096 0.872764 0.883398 0.893994 0.904553 0.915074 0.925554 0.935994 0.946393 0.956748 0.967060 0.977328 0.987551 0.997727 -0.018559 -0.010713 -0.002775 0.005255 0.013375 0.021585 0.029883 0.038270 0.046745 0.055306 0.063952 0.072684 0.081498 0.090396 0.099375 0.108435 0.117573 0.126790 0.136084 0.145454 0.154898 0.164415 0.174004 0.183664 0.193392 0.203188 0.213050 0.222977 0.232966 0.243017 0.253129 0.263298 0.273525 0.283806 0.294142 0.304529 0.314966 0.325451 0.335984 0.346561 0.357181 0.367844 0.378545 0.389285 0.400061 0.410871 0.421714 0.432587 0.443489 0.454419 0.465373 0.476351 0.487351 0.498370 0.509408 0.520461 0.531529 0.542609 0.553701 0.564801 0.575908 0.587020 0.598136 0.609254 0.620372 0.631488 0.642601 0.653709 0.664811 0.675903 0.686986 0.698057 0.709115 0.720158 0.731185 0.742193 0.753183 0.764151 0.775097 0.786019 0.796916 0.807786 0.818628 0.829440 0.840223 0.850973 0.861690 0.872373 0.883020 0.893631 0.904204 0.914738 0.925232 0.935686 0.946097 0.956466 0.966791 0.977072 0.987307 0.997496 -0.020186 -0.012330 -0.004383 0.003657 0.011787 0.020007 0.028316 0.036714 0.045199 0.053771 0.062429 0.071171 0.079998 0.088907 0.097898 0.106970 0.116121 0.125350 0.134657 0.144040 0.153497 0.163027 0.172629 0.182302 0.192044 0.201854 0.211730 0.221670 0.231674 0.241740 0.251865 0.262050 0.272291 0.282587 0.292937 0.303339 0.313791 0.324292 0.334840 0.345432 0.356069 0.366746 0.377463 0.388219 0.399010 0.409836 0.420695 0.431584 0.442502 0.453448 0.464418 0.475413 0.486428 0.497464 0.508517 0.519587 0.530671 0.541767 0.552874 0.563991 0.575114 0.586242 0.597374 0.608508 0.619642 0.630774 0.641903 0.653027 0.664144 0.675252 0.686351 0.697438 0.708511 0.719569 0.730611 0.741635 0.752640 0.763623 0.774584 0.785521 0.796432 0.807317 0.818174 0.829001 0.839797 0.850562 0.861293 0.871990 0.882651 0.893275 0.903862 0.914409 0.924917 0.935383 0.945808 0.956189 0.966527 0.976820 0.987068 0.997269 -0.021771 -0.013906 -0.005949 0.002100 0.010240 0.018470 0.026789 0.035197 0.043693 0.052276 0.060944 0.069698 0.078536 0.087456 0.096459 0.105543 0.114706 0.123947 0.133266 0.142661 0.152131 0.161674 0.171289 0.180975 0.190731 0.200554 0.210443 0.220397 0.230415 0.240495 0.250634 0.260833 0.271088 0.281399 0.291763 0.302180 0.312647 0.323162 0.333725 0.344333 0.354984 0.365676 0.376409 0.387180 0.397986 0.408828 0.419702 0.430607 0.441540 0.452501 0.463487 0.474497 0.485528 0.496580 0.507649 0.518734 0.529834 0.540946 0.552069 0.563200 0.574339 0.585483 0.596631 0.607780 0.618930 0.630078 0.641222 0.652361 0.663493 0.674617 0.685731 0.696833 0.707921 0.718994 0.730051 0.741090 0.752109 0.763107 0.774083 0.785034 0.795960 0.806859 0.817730 0.828571 0.839381 0.850160 0.860905 0.871615 0.882289 0.892927 0.903527 0.914087 0.924608 0.935087 0.945524 0.955918 0.966269 0.976574 0.986834 0.997047 -0.023314 -0.015440 -0.007474 0.000584 0.008734 0.016973 0.025303 0.033721 0.042227 0.050820 0.059499 0.068264 0.077112 0.086044 0.095058 0.104153 0.113328 0.122582 0.131913 0.141320 0.150802 0.160357 0.169985 0.179684 0.189452 0.199288 0.209190 0.219158 0.229189 0.239282 0.249436 0.259648 0.269917 0.280242 0.290620 0.301051 0.311532 0.322062 0.332639 0.343262 0.353927 0.364635 0.375382 0.386167 0.396989 0.407845 0.418734 0.429654 0.440603 0.451579 0.462580 0.473605 0.484652 0.495718 0.506802 0.517903 0.529018 0.540145 0.551283 0.562430 0.573584 0.584743 0.595906 0.607071 0.618235 0.629398 0.640557 0.651711 0.662859 0.673997 0.685126 0.696242 0.707345 0.718433 0.729505 0.740558 0.751591 0.762604 0.773593 0.784559 0.795499 0.806411 0.817296 0.828151 0.838975 0.849767 0.860525 0.871248 0.881936 0.892587 0.903199 0.913773 0.924306 0.934797 0.945247 0.955653 0.966015 0.976333 0.986604 0.996829 -0.024815 -0.016932 -0.008957 -0.000890 0.007269 0.015518 0.023857 0.032285 0.040801 0.049404 0.058094 0.066869 0.075728 0.084671 0.093696 0.102802 0.111988 0.121253 0.130596 0.140015 0.149509 0.159076 0.168716 0.178427 0.188208 0.198057 0.207972 0.217952 0.227997 0.238103 0.248269 0.258495 0.268778 0.279116 0.289508 0.299953 0.310448 0.320992 0.331583 0.342219 0.352899 0.363621 0.374382 0.385182 0.396018 0.406889 0.417792 0.428727 0.439690 0.450681 0.461697 0.472737 0.483798 0.494879 0.505978 0.517093 0.528223 0.539365 0.550518 0.561680 0.572848 0.584022 0.595200 0.606379 0.617558 0.628736 0.639910 0.651078 0.662240 0.673393 0.684536 0.695667 0.706784 0.717886 0.728972 0.740039 0.751086 0.762112 0.773116 0.784095 0.795048 0.805975 0.816873 0.827741 0.838578 0.849383 0.860154 0.870891 0.881591 0.892254 0.902879 0.913465 0.924010 0.934514 0.944976 0.955394 0.965768 0.976096 0.986379 0.996615 -0.026274 -0.018383 -0.010399 -0.002323 0.005845 0.014103 0.022451 0.030889 0.039415 0.048028 0.056728 0.065513 0.074383 0.083336 0.092372 0.101489 0.110686 0.119962 0.129316 0.138746 0.148252 0.157831 0.167483 0.177206 0.186999 0.196860 0.206787 0.216780 0.226837 0.236956 0.247136 0.257374 0.267670 0.278021 0.288427 0.298885 0.309393 0.319951 0.330555 0.341205 0.351899 0.362635 0.373410 0.384224 0.395074 0.405959 0.416876 0.427825 0.438803 0.449808 0.460838 0.471892 0.482967 0.494063 0.505176 0.516306 0.527450 0.538606 0.549773 0.560949 0.572132 0.583321 0.594512 0.605706 0.616899 0.628091 0.639279 0.650462 0.661637 0.672804 0.683961 0.695106 0.706237 0.717353 0.728452 0.739533 0.750594 0.761634 0.772650 0.783643 0.794610 0.805549 0.816460 0.827341 0.838191 0.849009 0.859792 0.870541 0.881254 0.891930 0.902567 0.913165 0.923722 0.934237 0.944711 0.955140 0.965525 0.975865 0.986159 0.996406 -0.027690 -0.019791 -0.011799 -0.003714 0.004462 0.012729 0.021087 0.029534 0.038069 0.046691 0.055401 0.064196 0.073076 0.082039 0.091086 0.100213 0.109421 0.118708 0.128073 0.137514 0.147031 0.156622 0.166285 0.176020 0.185824 0.195697 0.205637 0.215642 0.225711 0.235842 0.246034 0.256285 0.266594 0.276958 0.287377 0.297847 0.308369 0.318940 0.329557 0.340221 0.350928 0.361676 0.372465 0.383293 0.394157 0.405055 0.415986 0.426948 0.437940 0.448959 0.460003 0.471070 0.482160 0.493269 0.504396 0.515540 0.526698 0.537868 0.549049 0.560239 0.571436 0.582638 0.593844 0.605051 0.616258 0.627464 0.638665 0.649862 0.661051 0.672232 0.683402 0.694560 0.705705 0.716834 0.727947 0.739041 0.750115 0.761167 0.772197 0.783202 0.794182 0.805134 0.816058 0.826951 0.837814 0.848644 0.859440 0.870201 0.880926 0.891613 0.902262 0.912871 0.923440 0.933967 0.944452 0.954892 0.965289 0.975640 0.985944 0.996202 -0.029065 -0.021158 -0.013157 -0.005064 0.003121 0.011397 0.019763 0.028219 0.036763 0.045395 0.054114 0.062919 0.071808 0.080782 0.089838 0.098976 0.108194 0.117491 0.126867 0.136319 0.145847 0.155448 0.165123 0.174869 0.184685 0.194569 0.204521 0.214537 0.224618 0.234762 0.244966 0.255229 0.265550 0.275926 0.286357 0.296840 0.307375 0.317958 0.328588 0.339265 0.349984 0.360746 0.371548 0.382389 0.393266 0.404177 0.415122 0.426097 0.437102 0.448134 0.459192 0.470273 0.481376 0.492498 0.503639 0.514796 0.525967 0.537151 0.548346 0.559549 0.570759 0.581975 0.593194 0.604415 0.615635 0.626854 0.638069 0.649278 0.660481 0.671675 0.682858 0.694029 0.705187 0.716329 0.727455 0.738561 0.749648 0.760714 0.771756 0.782774 0.793766 0.804730 0.815666 0.826572 0.837446 0.848288 0.859096 0.869869 0.880605 0.891304 0.901965 0.912585 0.923165 0.933704 0.944199 0.954651 0.965058 0.975419 0.985735 0.996003 -0.030397 -0.022482 -0.014474 -0.006373 0.001821 0.010105 0.018480 0.026944 0.035497 0.044138 0.052866 0.061680 0.070579 0.079562 0.088628 0.097776 0.107004 0.116312 0.125698 0.135160 0.144698 0.154311 0.163996 0.173753 0.183580 0.193476 0.203438 0.213467 0.223559 0.233714 0.243929 0.254204 0.264537 0.274926 0.285369 0.295864 0.306410 0.317006 0.327649 0.338337 0.349070 0.359844 0.370659 0.381512 0.392402 0.403326 0.414283 0.425272 0.436289 0.447334 0.458405 0.469499 0.480615 0.491750 0.502904 0.514074 0.525258 0.536455 0.547663 0.558879 0.570103 0.581331 0.592563 0.603797 0.615030 0.626262 0.637489 0.648712 0.659927 0.671134 0.682330 0.693514 0.704684 0.715839 0.726977 0.738096 0.749195 0.760273 0.771327 0.782357 0.793361 0.804337 0.815285 0.826203 0.837089 0.847942 0.858762 0.869546 0.880294 0.891004 0.901675 0.912307 0.922898 0.933447 0.943953 0.954415 0.964833 0.975205 0.985530 0.995808 -0.031687 -0.023765 -0.015749 -0.007640 0.000561 0.008854 0.017237 0.025710 0.034271 0.042921 0.051658 0.060481 0.069389 0.078382 0.087457 0.096614 0.105852 0.115170 0.124565 0.134038 0.143587 0.153209 0.162905 0.172673 0.182510 0.192416 0.202390 0.212429 0.222533 0.232699 0.242926 0.253212 0.263556 0.273956 0.284411 0.294918 0.305476 0.316084 0.326739 0.337439 0.348184 0.358970 0.369797 0.380662 0.391564 0.402501 0.413471 0.424472 0.435502 0.446559 0.457642 0.468748 0.479877 0.491025 0.502192 0.513374 0.524571 0.535780 0.547001 0.558230 0.569465 0.580707 0.591951 0.603197 0.614443 0.625687 0.636927 0.648162 0.659390 0.670609 0.681817 0.693013 0.704196 0.715362 0.726512 0.737644 0.748755 0.759844 0.770910 0.781952 0.792968 0.803956 0.814915 0.825844 0.836741 0.847606 0.858436 0.869232 0.879990 0.890711 0.901394 0.912036 0.922637 0.933197 0.943713 0.954186 0.964613 0.974995 0.985330 0.995618 -0.032935 -0.025005 -0.016982 -0.008865 -0.000657 0.007644 0.016035 0.024516 0.033086 0.041744 0.050490 0.059321 0.068238 0.077240 0.086324 0.095491 0.104738 0.114065 0.123470 0.132953 0.142511 0.152144 0.161850 0.171627 0.181475 0.191392 0.201376 0.211426 0.221540 0.231717 0.241955 0.252252 0.262607 0.273019 0.283484 0.294003 0.304572 0.315191 0.325858 0.336570 0.347326 0.358124 0.368963 0.379840 0.390754 0.401702 0.412684 0.423697 0.434739 0.445808 0.456903 0.468022 0.479163 0.490323 0.501501 0.512696 0.523905 0.535127 0.546359 0.557600 0.568848 0.580102 0.591358 0.602616 0.613874 0.625130 0.636383 0.647629 0.658869 0.670100 0.681320 0.692528 0.703722 0.714901 0.726062 0.737205 0.748328 0.759428 0.770506 0.781559 0.792586 0.803585 0.814555 0.825495 0.836404 0.847279 0.858121 0.868927 0.879696 0.890427 0.901120 0.911773 0.922384 0.932954 0.943480 0.953962 0.964400 0.974791 0.985136 0.995433 -0.034141 -0.026204 -0.018173 -0.010049 -0.001833 0.006475 0.014873 0.023362 0.031940 0.040607 0.049361 0.058201 0.067126 0.076136 0.085230 0.094405 0.103661 0.112997 0.122412 0.131904 0.141472 0.151114 0.160830 0.170617 0.180475 0.190402 0.200396 0.210456 0.220580 0.230768 0.241016 0.251324 0.261690 0.272112 0.282589 0.293118 0.303699 0.314329 0.325006 0.335730 0.346497 0.357306 0.368156 0.379045 0.389970 0.400930 0.411923 0.422948 0.434001 0.445082 0.456189 0.467319 0.478472 0.489644 0.500834 0.512040 0.523261 0.534495 0.545739 0.556991 0.568251 0.579516 0.590784 0.602054 0.613324 0.624591 0.635855 0.647114 0.658365 0.669607 0.680839 0.692058 0.703263 0.714453 0.725626 0.736780 0.747914 0.759026 0.770114 0.781178 0.792216 0.803226 0.814207 0.825158 0.836077 0.846963 0.857814 0.868630 0.879410 0.890152 0.900854 0.911517 0.922138 0.932718 0.943254 0.953745 0.964192 0.974593 0.984947 0.995254 -0.035305 -0.027361 -0.019323 -0.011192 -0.002969 0.005346 0.013753 0.022249 0.030835 0.039509 0.048271 0.057119 0.066053 0.075071 0.084173 0.093357 0.102622 0.111967 0.121391 0.130892 0.140468 0.150120 0.159845 0.169642 0.179510 0.189446 0.199450 0.209520 0.219654 0.229852 0.240110 0.250428 0.260805 0.271237 0.281724 0.292264 0.302855 0.313496 0.324184 0.334918 0.345696 0.356517 0.367378 0.378277 0.389213 0.400185 0.411189 0.422224 0.433289 0.444381 0.455499 0.466641 0.477804 0.488988 0.500189 0.511407 0.522639 0.533884 0.545139 0.556403 0.567674 0.578950 0.590230 0.601511 0.612792 0.624070 0.635345 0.646615 0.657877 0.669130 0.680373 0.691603 0.702820 0.714020 0.725204 0.736369 0.747513 0.758636 0.769735 0.780810 0.791858 0.802878 0.813870 0.824830 0.835760 0.846656 0.857517 0.868344 0.879133 0.889884 0.900597 0.911269 0.921900 0.932488 0.943034 0.953535 0.963991 0.974401 0.984764 0.995079 -0.036426 -0.028476 -0.020432 -0.012294 -0.004063 0.004259 0.012672 0.021176 0.029769 0.038451 0.047221 0.056077 0.065019 0.074045 0.083155 0.092347 0.101621 0.110974 0.120406 0.129916 0.139502 0.149162 0.158896 0.168702 0.178579 0.188525 0.198538 0.208618 0.218762 0.228969 0.239237 0.249565 0.259951 0.270393 0.280890 0.291441 0.302042 0.312693 0.323391 0.334136 0.344924 0.355755 0.366627 0.377537 0.388483 0.399465 0.410480 0.421526 0.432602 0.443705 0.454834 0.465986 0.477160 0.488355 0.499567 0.510795 0.522038 0.533294 0.544560 0.555835 0.567117 0.578404 0.589694 0.600986 0.612278 0.623567 0.634853 0.646133 0.657406 0.668670 0.679923 0.691164 0.702391 0.713602 0.724796 0.735971 0.747126 0.758259 0.769369 0.780453 0.791511 0.802542 0.813543 0.824514 0.835453 0.846359 0.857230 0.868066 0.878865 0.889626 0.900347 0.911029 0.921669 0.932267 0.942821 0.953331 0.963796 0.974214 0.984586 0.994910 -0.037506 -0.029549 -0.021498 -0.013354 -0.005117 0.003212 0.011633 0.020143 0.028744 0.037433 0.046210 0.055074 0.064023 0.073057 0.082175 0.091375 0.100657 0.110018 0.119459 0.128977 0.138571 0.148240 0.157983 0.167798 0.177683 0.187638 0.197660 0.207749 0.217902 0.228118 0.238396 0.248733 0.259129 0.269581 0.280088 0.290648 0.301259 0.311919 0.322628 0.333382 0.344181 0.355022 0.365903 0.376823 0.387781 0.398773 0.409798 0.420854 0.431940 0.443053 0.454192 0.465355 0.476540 0.487745 0.498967 0.510206 0.521460 0.532726 0.544002 0.555288 0.566580 0.577877 0.589178 0.600480 0.611782 0.623082 0.634378 0.645669 0.656952 0.668226 0.679490 0.690741 0.701978 0.713199 0.724403 0.735588 0.746753 0.757895 0.769015 0.780109 0.791177 0.802217 0.813228 0.824208 0.835157 0.846072 0.856953 0.867798 0.878606 0.889376 0.900106 0.910797 0.921445 0.932052 0.942615 0.953134 0.963607 0.974034 0.984414 0.994746 -0.038543 -0.030580 -0.022523 -0.014373 -0.006129 0.002206 0.010633 0.019151 0.027758 0.036455 0.045239 0.054109 0.063066 0.072108 0.081233 0.090441 0.099730 0.109100 0.118548 0.128074 0.137677 0.147354 0.157105 0.166928 0.176822 0.186786 0.196817 0.206914 0.217076 0.227301 0.237588 0.247934 0.258339 0.268800 0.279316 0.289885 0.300506 0.311176 0.321894 0.332658 0.343466 0.354317 0.365208 0.376138 0.387105 0.398106 0.409141 0.420208 0.431303 0.442427 0.453576 0.464748 0.475943 0.487158 0.498390 0.509639 0.520903 0.532179 0.543465 0.554761 0.566063 0.577370 0.588681 0.599993 0.611305 0.622615 0.633921 0.645222 0.656515 0.667799 0.679072 0.690333 0.701579 0.712810 0.724024 0.735219 0.746393 0.757545 0.768674 0.779777 0.790855 0.801904 0.812924 0.823914 0.834871 0.845795 0.856685 0.867539 0.878355 0.889134 0.899873 0.910572 0.921230 0.931845 0.942416 0.952943 0.963424 0.973859 0.984247 0.994587 -0.039539 -0.031570 -0.023507 -0.015350 -0.007101 0.001241 0.009675 0.018199 0.026813 0.035516 0.044307 0.053184 0.062148 0.071197 0.080329 0.089545 0.098841 0.108218 0.117674 0.127208 0.136818 0.146504 0.156263 0.166094 0.175996 0.185968 0.196007 0.206113 0.216283 0.226517 0.236812 0.247167 0.257581 0.268051 0.278576 0.289154 0.299783 0.310462 0.321189 0.331962 0.342780 0.353640 0.364540 0.375479 0.386455 0.397467 0.408511 0.419587 0.430692 0.441825 0.452983 0.464166 0.475370 0.486594 0.497836 0.509095 0.520368 0.531653 0.542950 0.554255 0.565566 0.576883 0.588204 0.599526 0.610847 0.622166 0.633482 0.644792 0.656094 0.667387 0.678670 0.689940 0.701196 0.712436 0.723659 0.734863 0.746046 0.757208 0.768346 0.779458 0.790544 0.801603 0.812632 0.823630 0.834596 0.845529 0.856427 0.867289 0.878115 0.888902 0.899649 0.910356 0.921022 0.931645 0.942224 0.952759 0.963248 0.973691 0.984086 0.994434 -0.040492 -0.032518 -0.024449 -0.016287 -0.008031 0.000317 0.008757 0.017287 0.025907 0.034616 0.043414 0.052298 0.061269 0.070324 0.079464 0.088686 0.097990 0.107374 0.116837 0.126379 0.135996 0.145689 0.155456 0.165295 0.175205 0.185184 0.195231 0.205345 0.215524 0.225766 0.236069 0.246432 0.256854 0.267333 0.277866 0.288453 0.299091 0.309779 0.320514 0.331296 0.342122 0.352991 0.363900 0.374848 0.385833 0.396854 0.407907 0.418992 0.430106 0.441248 0.452416 0.463607 0.474820 0.486054 0.497305 0.508573 0.519855 0.531150 0.542455 0.553769 0.565090 0.576416 0.587746 0.599077 0.610407 0.621736 0.633060 0.644379 0.655691 0.666993 0.678284 0.689563 0.700828 0.712077 0.723309 0.734522 0.745714 0.756884 0.768030 0.779152 0.790246 0.801313 0.812350 0.823357 0.834332 0.845273 0.856179 0.867049 0.877883 0.888678 0.899433 0.910148 0.920822 0.931452 0.942039 0.952582 0.963078 0.973529 0.983931 0.994286 -0.041403 -0.033424 -0.025350 -0.017182 -0.008921 -0.000567 0.007879 0.016415 0.025041 0.033757 0.042560 0.051451 0.060428 0.069490 0.078636 0.087865 0.097176 0.106567 0.116037 0.125585 0.135210 0.144910 0.154684 0.164531 0.174448 0.184435 0.194490 0.204611 0.214797 0.225047 0.235358 0.245730 0.256160 0.266646 0.277188 0.287782 0.298429 0.309125 0.319869 0.330659 0.341493 0.352370 0.363288 0.374245 0.385238 0.396267 0.407329 0.418423 0.429545 0.440696 0.451872 0.463072 0.474294 0.485536 0.496797 0.508073 0.519364 0.530667 0.541981 0.553304 0.564634 0.575969 0.587307 0.598647 0.609986 0.621323 0.632656 0.643984 0.655304 0.666615 0.677915 0.689203 0.700476 0.711734 0.722974 0.734195 0.745395 0.756574 0.767728 0.778858 0.789961 0.801035 0.812081 0.823095 0.834078 0.845027 0.855941 0.866819 0.877660 0.888463 0.899226 0.909949 0.920630 0.931268 0.941862 0.952411 0.962915 0.973373 0.983782 0.994144 -0.042273 -0.034288 -0.026209 -0.018036 -0.009769 -0.001410 0.007041 0.015583 0.024215 0.032937 0.041746 0.050643 0.059626 0.068694 0.077847 0.087082 0.096399 0.105797 0.115274 0.124829 0.134460 0.144167 0.153948 0.163801 0.173726 0.183720 0.193782 0.203911 0.214104 0.224362 0.234680 0.245059 0.255497 0.265991 0.276540 0.287142 0.297796 0.308500 0.319252 0.330050 0.340893 0.351778 0.362704 0.373668 0.384670 0.395707 0.406777 0.417879 0.429010 0.440169 0.451353 0.462562 0.473792 0.485042 0.496311 0.507596 0.518895 0.530207 0.541529 0.552860 0.564199 0.575542 0.586888 0.598236 0.609584 0.620929 0.632271 0.643606 0.654935 0.666254 0.677562 0.688858 0.700139 0.711405 0.722653 0.733882 0.745090 0.756277 0.767439 0.778577 0.789687 0.800770 0.811823 0.822845 0.833835 0.844792 0.855713 0.866599 0.877447 0.888257 0.899028 0.909758 0.920445 0.931091 0.941692 0.952248 0.962759 0.973223 0.983640 0.994008 -0.043101 -0.035111 -0.027027 -0.018849 -0.010577 -0.002212 0.006244 0.014791 0.023429 0.032156 0.040971 0.049874 0.058863 0.067937 0.077095 0.086337 0.095660 0.105064 0.114547 0.124108 0.133746 0.143460 0.153247 0.163107 0.173039 0.183039 0.193108 0.203244 0.213445 0.223709 0.234035 0.244421 0.254865 0.265367 0.275923 0.286533 0.297195 0.307906 0.318665 0.329471 0.340321 0.351214 0.362147 0.373120 0.384129 0.395174 0.406252 0.417361 0.428500 0.439667 0.450859 0.462075 0.473314 0.484572 0.495848 0.507141 0.518448 0.529768 0.541098 0.552437 0.563783 0.575134 0.586489 0.597845 0.609200 0.620553 0.631903 0.643246 0.654582 0.665909 0.677225 0.688529 0.699818 0.711091 0.722347 0.733584 0.744800 0.755993 0.767163 0.778308 0.789426 0.800516 0.811577 0.822606 0.833603 0.844567 0.855496 0.866389 0.877244 0.888061 0.898838 0.909575 0.920269 0.930921 0.941529 0.952092 0.962609 0.973080 0.983503 0.993877 -0.043887 -0.035893 -0.027804 -0.019621 -0.011344 -0.002974 0.005487 0.014040 0.022682 0.031415 0.040235 0.049143 0.058138 0.067218 0.076382 0.085629 0.094958 0.104368 0.113857 0.123424 0.133068 0.142788 0.152582 0.162448 0.172386 0.182393 0.192469 0.202611 0.212818 0.223089 0.233422 0.243814 0.254266 0.264774 0.275338 0.285954 0.296623 0.307341 0.318108 0.328921 0.339778 0.350678 0.361619 0.372598 0.383615 0.394667 0.405752 0.416869 0.428016 0.439190 0.450390 0.461613 0.472859 0.484125 0.495409 0.506709 0.518023 0.529351 0.540689 0.552035 0.563389 0.574747 0.586109 0.597472 0.608835 0.620196 0.631553 0.642904 0.654247 0.665582 0.676905 0.688216 0.699512 0.710793 0.722056 0.733300 0.744523 0.755724 0.766901 0.778053 0.789178 0.800275 0.811342 0.822379 0.833383 0.844353 0.855289 0.866188 0.877050 0.887874 0.898658 0.909401 0.920102 0.930760 0.941374 0.951943 0.962467 0.972943 0.983372 0.993753 -0.044631 -0.036633 -0.028539 -0.020351 -0.012070 -0.003696 0.004770 0.013328 0.021975 0.030713 0.039538 0.048452 0.057451 0.066536 0.075706 0.084959 0.094293 0.103709 0.113203 0.122776 0.132426 0.142152 0.151952 0.161824 0.171768 0.181781 0.191863 0.202011 0.212225 0.222502 0.232841 0.243240 0.253698 0.264213 0.274783 0.285406 0.296081 0.306807 0.317580 0.328399 0.339263 0.350170 0.361118 0.372104 0.383128 0.394187 0.405279 0.416403 0.427557 0.438738 0.449944 0.461175 0.472428 0.483701 0.494992 0.506299 0.517621 0.528955 0.540300 0.551654 0.563014 0.574380 0.585749 0.597119 0.608489 0.619857 0.631221 0.642579 0.653929 0.665271 0.676601 0.687919 0.699222 0.710510 0.721779 0.733030 0.744260 0.755468 0.766652 0.777810 0.788942 0.800046 0.811119 0.822162 0.833173 0.844150 0.855092 0.865998 0.876866 0.887696 0.898486 0.909235 0.919942 0.930606 0.941227 0.951802 0.962331 