# vtk DataFile Version 3.0
vtk output
ASCII
DATASET STRUCTURED_POINTS
DIMENSIONS 100 100 1
SPACING 0.010101 0.010101 0
ORIGIN 0.000000 0.000000 0
POINT_DATA 10000
SCALARS RTData float
LOOKUP_TABLE default
0.000000 -0.002854 -0.005631 -0.008330 -0.010953 -0.013499 -0.015968 -0.018361 -0.020678 -0.022921 -0.025089 -0.027184 -0.029205 -0.031155 -0.033033 -0.034841 -0.036581 -0.038252 -0.039856 -0.041394 -0.042868 -0.044278 -0.045626 -0.046912 -0.048139 -0.049307 -0.050417 -0.051471 -0.052470 -0.053415 -0.054306 -0.055146 -0.055935 -0.056675 -0.057365 -0.058007 -0.058603 -0.059152 -0.059656 -0.060115 -0.060531 -0.060903 -0.061232 -0.061519 -0.061764 -0.061968 -0.062130 -0.062252 -0.062333 -0.062373 -0.062373 -0.062333 -0.062252 -0.062130 -0.061968 -0.061764 -0.061519 -0.061232 -0.060903 -0.060531 -0.060115 -0.059656 -0.059152 -0.058603 -0.058007 -0.057365 -0.056675 -0.055935 -0.055146 -0.054306 -0.053415 -0.052470 -0.051471 -0.050417 -0.049307 -0.048139 -0.046912 -0.045626 -0.044278 -0.042868 -0.041394 -0.039856 -0.038252 -0.036581 -0.034841 -0.033033 -0.031155 -0.029205 -0.027184 -0.025089 -0.022921 -0.020678 -0.018361 -0.015968 -0.013499 -0.010953 -0.008330 -0.005631 -0.002854 -0.000000 0.006356 0.003514 0.000749 -0.001939 -0.004550 -0.007085 -0.009544 -0.011927 -0.014234 -0.016467 -0.018626 -0.020711 -0.022723 -0.024664 -0.026534 -0.028334 -0.030065 -0.031729 -0.033326 -0.034857 -0.036323 -0.037727 -0.039068 -0.040349 -0.041569 -0.042732 -0.043837 -0.044885 -0.045879 -0.046819 -0.047706 -0.048542 -0.049327 -0.050063 -0.050749 -0.051389 -0.051981 -0.052527 -0.053029 -0.053485 -0.053899 -0.054269 -0.054596 -0.054881 -0.055125 -0.055328 -0.055489 -0.055610 -0.055691 -0.055731 -0.055731 -0.055691 -0.055610 -0.055489 -0.055328 -0.055125 -0.054881 -0.054596 -0.054269 -0.053899 -0.053485 -0.053029 -0.052527 -0.051981 -0.051389 -0.050749 -0.050063 -0.049327 -0.048542 -0.047706 -0.046819 -0.045879 -0.044885 -0.043837 -0.042732 -0.041569 -0.040349 -0.039068 -0.037727 -0.036323 -0.034857 -0.033326 -0.031729 -0.030065 -0.028334 -0.026534 -0.024664 -0.022723 -0.020711 -0.018626 -0.016467 -0.014234 -0.011927 -0.009544 -0.007085 -0.004550 -0.001939 0.000749 0.003514 0.006356 0.012860 0.010030 0.007277 0.004601 0.002001 -0.000523 -0.002971 -0.005343 -0.007640 -0.009863 -0.012012 -0.014088 -0.016091 -0.018023 -0.019885 -0.021676 -0.023400 -0.025055 -0.026645 -0.028169 -0.029629 -0.031025 -0.032360 -0.033635 -0.034850 -0.036006 -0.037106 -0.038150 -0.039139 -0.040074 -0.040957 -0.041788 -0.042570 -0.043301 -0.043985 -0.044621 -0.045210 -0.045754 -0.046253 -0.046707 -0.047118 -0.047486 -0.047812 -0.048096 -0.048338 -0.048540 -0.048701 -0.048821 -0.048901 -0.048941 -0.048941 -0.048901 -0.048821 -0.048701 -0.048540 -0.048338 -0.048096 -0.047812 -0.047486 -0.047118 -0.046707 -0.046253 -0.045754 -0.045210 -0.044621 -0.043985 -0.043301 -0.042570 -0.041788 -0.040957 -0.040074 -0.039139 -0.038150 -0.037106 -0.036006 -0.034850 -0.033635 -0.032360 -0.031025 -0.029629 -0.028169 -0.026645 -0.025055 -0.023400 -0.021676 -0.019885 -0.018023 -0.016091 -0.014088 -0.012012 -0.009863 -0.007640 -0.005343 -0.002971 -0.000523 0.002001 0.004601 0.007277 0.010030 0.012860 0.019510 0.016693 0.013952 0.011288 0.008700 0.006188 0.003751 0.001390 -0.000897 -0.003110 -0.005249 -0.007315 -0.009309 -0.011232 -0.013085 -0.014869 -0.016584 -0.018232 -0.019814 -0.021331 -0.022784 -0.024174 -0.025503 -0.026771 -0.027980 -0.029132 -0.030226 -0.031265 -0.032249 -0.033180 -0.034059 -0.034886 -0.035664 -0.036392 -0.037072 -0.037705 -0.038291 -0.038833 -0.039329 -0.039781 -0.040190 -0.040556 -0.040881 -0.041163 -0.041405 -0.041605 -0.041765 -0.041885 -0.041965 -0.042005 -0.042005 -0.041965 -0.041885 -0.041765 -0.041605 -0.041405 -0.041163 -0.040881 -0.040556 -0.040190 -0.039781 -0.039329 -0.038833 -0.038291 -0.037705 -0.037072 -0.036392 -0.035664 -0.034886 -0.034059 -0.033180 -0.032249 -0.031265 -0.030226 -0.029132 -0.027980 -0.026771 -0.025503 -0.024174 -0.022784 -0.021331 -0.019814 -0.018232 -0.016584 -0.014869 -0.013085 -0.011232 -0.009309 -0.007315 -0.005249 -0.003110 -0.000897 0.001390 0.003751 0.006188 0.008700 0.011288 0.013952 0.016693 0.019510 0.026306 0.023502 0.020774 0.018122 0.015546 0.013046 0.010621 0.008270 0.005994 0.003792 0.001663 -0.000394 -0.002378 -0.004293 -0.006137 -0.007912 -0.009619 -0.011260 -0.012834 -0.014344 -0.015790 -0.017174 -0.018496 -0.019759 -0.020962 -0.022108 -0.023197 -0.024231 -0.025211 -0.026138 -0.027012 -0.027836 -0.028610 -0.029335 -0.030012 -0.030642 -0.031225 -0.031764 -0.032258 -0.032708 -0.033115 -0.033480 -0.033803 -0.034084 -0.034324 -0.034524 -0.034683 -0.034802 -0.034882 -0.034921 -0.034921 -0.034882 -0.034802 -0.034683 -0.034524 -0.034324 -0.034084 -0.033803 -0.033480 -0.033115 -0.032708 -0.032258 -0.031764 -0.031225 -0.030642 -0.030012 -0.029335 -0.028610 -0.027836 -0.027012 -0.026138 -0.025211 -0.024231 -0.023197 -0.022108 -0.020962 -0.019759 -0.018496 -0.017174 -0.015790 -0.014344 -0.012834 -0.011260 -0.009619 -0.007912 -0.006137 -0.004293 -0.002378 -0.000394 0.001663 0.003792 0.005994 0.008270 0.010621 0.013046 0.015546 0.018122 0.020774 0.023502 0.026306 0.033247 0.030456 0.027742 0.025103 0.022539 0.020051 0.017637 0.015298 0.013033 0.010842 0.008723 0.006676 0.004701 0.002796 0.000960 -0.000807 -0.002506 -0.004139 -0.005706 -0.007208 -0.008648 -0.010025 -0.011342 -0.012598 -0.013796 -0.014937 -0.016021 -0.017051 -0.018026 -0.018948 -0.019819 -0.020639 -0.021409 -0.022131 -0.022805 -0.023432 -0.024013 -0.024549 -0.025041 -0.025489 -0.025894 -0.026257 -0.026579 -0.026859 -0.027098 -0.027296 -0.027455 -0.027574 -0.027653 -0.027692 -0.027692 -0.027653 -0.027574 -0.027455 -0.027296 -0.027098 -0.026859 -0.026579 -0.026257 -0.025894 -0.025489 -0.025041 -0.024549 -0.024013 -0.023432 -0.022805 -0.022131 -0.021409 -0.020639 -0.019819 -0.018948 -0.018026 -0.017051 -0.016021 -0.014937 -0.013796 -0.012598 -0.011342 -0.010025 -0.008648 -0.007208 -0.005706 -0.004139 -0.002506 -0.000807 0.000960 0.002796 0.004701 0.006676 0.008723 0.010842 0.013033 0.015298 0.017637 0.020051 0.022539 0.025103 0.027742 0.030456 0.033247 0.040331 0.037555 0.034854 0.032229 0.029678 0.027202 0.024800 0.022473 0.020219 0.018038 0.015929 0.013893 0.011927 0.010031 0.008204 0.006446 0.004755 0.003130 0.001570 0.000074 -0.001359 -0.002730 -0.004040 -0.005291 -0.006483 -0.007619 -0.008698 -0.009723 -0.010694 -0.011612 -0.012479 -0.013295 -0.014062 -0.014781 -0.015452 -0.016076 -0.016655 -0.017189 -0.017678 -0.018125 -0.018528 -0.018890 -0.019210 -0.019488 -0.019727 -0.019924 -0.020082 -0.020201 -0.020279 -0.020319 -0.020319 -0.020279 -0.020201 -0.020082 -0.019924 -0.019727 -0.019488 -0.019210 -0.018890 -0.018528 -0.018125 -0.017678 -0.017189 -0.016655 -0.016076 -0.015452 -0.014781 -0.014062 -0.013295 -0.012479 -0.011612 -0.010694 -0.009723 -0.008698 -0.007619 -0.006483 -0.005291 -0.004040 -0.002730 -0.001359 0.000074 0.001570 0.003130 0.004755 0.006446 0.008204 0.010031 0.011927 0.013893 0.015929 0.018038 0.020219 0.022473 0.024800 0.027202 0.029678 0.032229 0.034854 0.037555 0.040331 0.047558 0.044797 0.042110 0.039498 0.036961 0.034497 0.032108 0.029792 0.027550 0.025380 0.023282 0.021255 0.019299 0.017412 0.015595 0.013845 0.012161 0.010544 0.008992 0.007503 0.006077 0.004712 0.003408 0.002163 0.000975 -0.000155 -0.001230 -0.002250 -0.003217 -0.004131 -0.004994 -0.005807 -0.006571 -0.007286 -0.007954 -0.008576 -0.009152 -0.009684 -0.010172 -0.010616 -0.011018 -0.011378 -0.011697 -0.011975 -0.012212 -0.012409 -0.012566 -0.012684 -0.012762 -0.012801 -0.012801 -0.012762 -0.012684 -0.012566 -0.012409 -0.012212 -0.011975 -0.011697 -0.011378 -0.011018 -0.010616 -0.010172 -0.009684 -0.009152 -0.008576 -0.007954 -0.007286 -0.006571 -0.005807 -0.004994 -0.004131 -0.003217 -0.002250 -0.001230 -0.000155 0.000975 0.002163 0.003408 0.004712 0.006077 0.007503 0.008992 0.010544 0.012161 0.013845 0.015595 0.017412 0.019299 0.021255 0.023282 0.025380 0.027550 0.029792 0.032108 0.034497 0.036961 0.039498 0.042110 0.044797 0.047558 0.054927 0.052181 0.049509 0.046910 0.044386 0.041936 0.039559 0.037256 0.035025 0.032866 0.030779 0.028762 0.026816 0.024939 0.023130 0.021388 0.019713 0.018104 0.016559 0.015077 0.013657 0.012299 0.011000 0.009761 0.008579 0.007453 0.006383 0.005368 0.004405 0.003495 0.002635 0.001826 0.001065 0.000352 -0.000313 -0.000933 -0.001507 -0.002036 -0.002522 -0.002965 -0.003365 -0.003724 -0.004041 -0.004318 -0.004554 -0.004751 -0.004907 -0.005025 -0.005103 -0.005142 -0.005142 -0.005103 -0.005025 -0.004907 -0.004751 -0.004554 -0.004318 -0.004041 -0.003724 -0.003365 -0.002965 -0.002522 -0.002036 -0.001507 -0.000933 -0.000313 0.000352 0.001065 0.001826 0.002635 0.003495 0.004405 0.005368 0.006383 0.007453 0.008579 0.009761 0.011000 0.012299 0.013657 0.015077 0.016559 0.018104 0.019713 0.021388 0.023130 0.024939 0.026816 0.028762 0.030779 0.032866 0.035025 0.037256 0.039559 0.041936 0.044386 0.046910 0.049509 0.052181 0.054927 0.062436 0.059705 0.057048 0.054464 0.051954 0.049517 0.047153 0.044862 0.042643 0.040495 0.038419 0.036413 0.034476 0.032608 0.030809 0.029076 0.027409 0.025807 0.024269 0.022794 0.021381 0.020029 0.018737 0.017502 0.016326 0.015205 0.014140 0.013128 0.012170 0.011263 0.010407 0.009601 0.008843 0.008133 0.007470 0.006853 0.006281 0.005754 0.005270 0.004829 0.004430 0.004072 0.003756 0.003480 0.003245 0.003049 0.002893 0.002776 0.002698 0.002659 0.002659 0.002698 0.002776 0.002893 0.003049 0.003245 0.003480 0.003756 0.004072 0.004430 0.004829 0.005270 0.005754 0.006281 0.006853 0.007470 0.008133 0.008843 0.009601 0.010407 0.011263 0.012170 0.013128 0.014140 0.015205 0.016326 0.017502 0.018737 0.020029 0.021381 0.022794 0.024269 0.025807 0.027409 0.029076 0.030809 0.032608 0.034476 0.036413 0.038419 0.040495 0.042643 0.044862 0.047153 0.049517 0.051954 0.054464 0.057048 0.059705 0.062436 0.070084 0.067369 0.064727 0.062158 0.059662 0.057238 0.054888 0.052609 0.050402 0.048266 0.046201 0.044205 0.042278 0.040420 0.038629 0.036905 0.035247 0.033653 0.032122 0.030654 0.029248 0.027902 0.026615 0.025386 0.024214 0.023099 0.022038 0.021030 0.020076 0.019173 0.018320 0.017517 0.016762 0.016055 0.015395 0.014780 0.014210 0.013684 0.013202 0.012762 0.012365 0.012008 0.011693 0.011419 0.011184 0.010989 0.010833 0.010717 0.010639 0.010600 0.010600 0.010639 0.010717 0.010833 0.010989 0.011184 0.011419 0.011693 0.012008 0.012365 0.012762 0.013202 0.013684 0.014210 0.014780 0.015395 0.016055 0.016762 0.017517 0.018320 0.019173 0.020076 0.021030 0.022038 0.023099 0.024214 0.025386 0.026615 0.027902 0.029248 0.030654 0.032122 0.033653 0.035247 0.036905 0.038629 0.040420 0.042278 0.044205 0.046201 0.048266 0.050402 0.052609 0.054888 0.057238 0.059662 0.062158 0.064727 0.067369 0.070084 0.077869 0.075170 0.072543 0.069989 0.067508 0.065099 0.062761 0.060496 0.058301 0.056177 0.054122 0.052137 0.050221 0.048372 0.046591 0.044875 0.043225 0.041639 0.040115 0.038654 0.037255 0.035915 0.034634 0.033410 0.032244 0.031133 0.030076 0.029073 0.028122 0.027222 0.026373 0.025573 0.024821 0.024116 0.023458 0.022846 0.022278 0.021754 0.021273 0.020835 0.020439 0.020084 0.019769 0.019496 0.019262 0.019067 0.018912 0.018796 0.018718 0.018680 0.018680 0.018718 0.018796 0.018912 0.019067 0.019262 0.019496 0.019769 0.020084 0.020439 0.020835 0.021273 0.021754 0.022278 0.022846 0.023458 0.024116 0.024821 0.025573 0.026373 0.027222 0.028122 0.029073 0.030076 0.031133 0.032244 0.033410 0.034634 0.035915 0.037255 0.038654 0.040115 0.041639 0.043225 0.044875 0.046591 0.048372 0.050221 0.052137 0.054122 0.056177 0.058301 0.060496 0.062761 0.065099 0.067508 0.069989 0.072543 0.075170 0.077869 0.085789 0.083106 0.080496 0.077958 0.075491 0.073096 0.070773 0.068520 0.066337 0.064225 0.062182 0.060208 0.058302 0.056463 0.054691 0.052984 0.051342 0.049764 0.048248 0.046794 0.045400 0.044066 0.042791 0.041573 0.040412 0.039305 0.038253 0.037254 0.036307 0.035410 0.034564 0.033767 0.033018 0.032316 0.031660 0.031049 0.030483 0.029961 0.029482 0.029045 0.028650 0.028296 0.027983 0.027710 0.027476 0.027283 0.027128 0.027012 0.026935 0.026896 0.026896 0.026935 0.027012 0.027128 0.027283 0.027476 0.027710 0.027983 0.028296 0.028650 0.029045 0.029482 0.029961 0.030483 0.031049 0.031660 0.032316 0.033018 0.033767 0.034564 0.035410 0.036307 0.037254 0.038253 0.039305 0.040412 0.041573 0.042791 0.044066 0.045400 0.046794 0.048248 0.049764 0.051342 0.052984 0.054691 0.056463 0.058302 0.060208 0.062182 0.064225 0.066337 0.068520 0.070773 0.073096 0.075491 0.077958 0.080496 0.083106 0.085789 0.093842 0.091177 0.088583 0.086061 0.083609 0.081229 0.078919 0.076680 0.074510 0.072410 0.070379 0.068416 0.066520 0.064691 0.062928 0.061230 0.059596 0.058026 0.056517 0.055070 0.053683 0.052356 0.051086 0.049873 0.048716 0.047615 0.046567 0.045571 0.044628 0.043735 0.042892 0.042098 0.041351 0.040651 0.039998 0.039389 0.038825 0.038304 0.037827 0.037391 0.036997 0.036644 0.036332 0.036059 0.035827 0.035633 0.035479 0.035364 0.035287 0.035248 0.035248 0.035287 0.035364 0.035479 0.035633 0.035827 0.036059 0.036332 0.036644 0.036997 0.037391 0.037827 0.038304 0.038825 0.039389 0.039998 0.040651 0.041351 0.042098 0.042892 0.043735 0.044628 0.045571 0.046567 0.047615 0.048716 0.049873 0.051086 0.052356 0.053683 0.055070 0.056517 0.058026 0.059596 0.061230 0.062928 0.064691 0.066520 0.068416 0.070379 0.072410 0.074510 0.076680 0.078919 0.081229 0.083609 0.086061 0.088583 0.091177 0.093842 0.102028 0.099380 0.096803 0.094297 0.091861 0.089495 0.087200 0.084974 0.082817 0.080730 0.078710 0.076758 0.074873 0.073054 0.071300 0.069611 0.067986 0.066423 0.064922 0.063482 0.062102 0.060780 0.059516 0.058308 0.057157 0.056059 0.055016 0.054024 0.053084 0.052195 0.051355 0.050563 0.049819 0.049122 0.048470 0.047863 0.047301 0.046782 0.046305 0.045871 0.045478 0.045126 0.044815 0.044543 0.044311 0.044118 0.043964 0.043849 0.043772 0.043734 0.043734 0.043772 0.043849 0.043964 0.044118 0.044311 0.044543 0.044815 0.045126 0.045478 0.045871 0.046305 0.046782 0.047301 0.047863 0.048470 0.049122 0.049819 0.050563 0.051355 0.052195 0.053084 0.054024 0.055016 0.056059 0.057157 0.058308 0.059516 0.060780 0.062102 0.063482 0.064922 0.066423 0.067986 0.069611 0.071300 0.073054 0.074873 0.076758 0.078710 0.080730 0.082817 0.084974 0.087200 0.089495 0.091861 0.094297 0.096803 0.099380 0.102028 0.110343 0.107713 0.105153 0.102663 0.100243 0.097893 0.095612 0.093400 0.091257 0.089181 0.087174 0.085233 0.083359 0.081550 0.079806 0.078126 0.076509 0.074954 0.073460 0.072027 0.070653 0.069338 0.068079 0.066877 0.065730 0.064637 0.063598 0.062610 0.061674 0.060787 0.059950 0.059161 0.058420 0.057725 0.057075 0.056470 0.055909 0.055392 0.054917 0.054483 0.054092 0.053741 0.053430 0.053159 0.052927 0.052735 0.052581 0.052466 0.052390 0.052351 0.052351 0.052390 0.052466 0.052581 0.052735 0.052927 0.053159 0.053430 0.053741 0.054092 0.054483 0.054917 0.055392 0.055909 0.056470 0.057075 0.057725 0.058420 0.059161 0.059950 0.060787 0.061674 0.062610 0.063598 0.064637 0.065730 0.066877 0.068079 0.069338 0.070653 0.072027 0.073460 0.074954 0.076509 0.078126 0.079806 0.081550 0.083359 0.085233 0.087174 0.089181 0.091257 0.093400 0.095612 0.097893 0.100243 0.102663 0.105153 0.107713 0.110343 0.118785 0.116174 0.113632 0.111159 0.108755 0.106420 0.104154 0.101956 0.099826 0.097763 0.095768 0.093839 0.091975 0.090176 0.088442 0.086771 0.085163 0.083616 0.082130 0.080704 0.079336 0.078027 0.076774 0.075577 0.074435 0.073346 0.072311 0.071327 0.070394 0.069511 0.068677 0.067890 0.067151 0.066458 0.065811 0.065207 0.064648 0.064132 0.063658 0.063226 0.062835 0.062485 0.062175 0.061905 0.061674 0.061482 0.061328 0.061214 0.061137 0.061099 0.061099 0.061137 0.061214 0.061328 0.061482 0.061674 0.061905 0.062175 0.062485 0.062835 0.063226 0.063658 0.064132 0.064648 0.065207 0.065811 0.066458 0.067151 0.067890 0.068677 0.069511 0.070394 0.071327 0.072311 0.073346 0.074435 0.075577 0.076774 0.078027 0.079336 0.080704 0.082130 0.083616 0.085163 0.086771 0.088442 0.090176 0.091975 0.093839 0.095768 0.097763 0.099826 0.101956 0.104154 0.106420 0.108755 0.111159 0.113632 0.116174 0.118785 0.127353 0.124760 0.122236 0.119780 0.117393 0.115074 0.112823 0.110639 0.108523 0.106473 0.104490 0.102572 0.100720 0.098932 0.097207 0.095545 0.093946 0.092407 0.090928 0.089509 0.088148 0.086845 0.085598 0.084406 0.083269 0.082185 0.081153 0.080173 0.079244 0.078364 0.077532 0.076748 0.076012 0.075321 0.074675 0.074073 0.073516 0.073001 0.072528 0.072097 0.071707 0.071358 0.071049 0.070779 0.070548 0.070357 0.070204 0.070089 0.070013 0.069975 0.069975 0.070013 0.070089 0.070204 0.070357 0.070548 0.070779 0.071049 0.071358 0.071707 0.072097 0.072528 0.073001 0.073516 0.074073 0.074675 0.075321 0.076012 0.076748 0.077532 0.078364 0.079244 0.080173 0.081153 0.082185 0.083269 0.084406 0.085598 0.086845 0.088148 0.089509 0.090928 0.092407 0.093946 0.095545 0.097207 0.098932 0.100720 0.102572 0.104490 0.106473 0.108523 0.110639 0.112823 0.115074 0.117393 0.119780 0.122236 0.124760 0.127353 0.136044 0.133470 0.130964 0.128526 0.126156 0.123853 0.121617 0.119448 0.117345 0.115309 0.113338 0.111433 0.109591 0.107814 0.106099 0.104446 0.102855 0.101325 0.099854 0.098442 0.097087 0.095790 0.094548 0.093362 0.092229 0.091150 0.090122 0.089146 0.088220 0.087343 0.086514 0.085733 0.084999 0.084310 0.083666 0.083066 0.082510 0.081996 0.081525 0.081095 0.080706 0.080357 0.080048 0.079779 0.079549 0.079358 0.079205 0.079091 0.079015 0.078977 0.078977 0.079015 0.079091 0.079205 0.079358 0.079549 0.079779 0.080048 0.080357 0.080706 0.081095 0.081525 0.081996 0.082510 0.083066 0.083666 0.084310 0.084999 0.085733 0.086514 0.087343 0.088220 0.089146 0.090122 0.091150 0.092229 0.093362 0.094548 0.095790 0.097087 0.098442 0.099854 0.101325 0.102855 0.104446 0.106099 0.107814 0.109591 0.111433 0.113338 0.115309 0.117345 0.119448 0.121617 0.123853 0.126156 0.128526 0.130964 0.133470 0.136044 0.144856 0.142302 0.139814 0.137394 0.135041 0.132754 0.130534 0.128380 0.126291 0.124268 0.122310 0.120417 0.118586 0.116819 0.115115 0.113472 0.111889 0.110367 0.108904 0.107499 0.106151 0.104860 0.103624 0.102443 0.101315 0.100240 0.099216 0.098244 0.097321 0.096447 0.095621 0.094843 0.094110 0.093423 0.092781 0.092183 0.091628 0.091116 0.090645 0.090216 0.089828 0.089480 0.089172 0.088903 0.088674 0.088483 0.088331 0.088216 0.088140 0.088103 0.088103 0.088140 0.088216 0.088331 0.088483 0.088674 0.088903 0.089172 0.089480 0.089828 0.090216 0.090645 0.091116 0.091628 0.092183 0.092781 0.093423 0.094110 0.094843 0.095621 0.096447 0.097321 0.098244 0.099216 0.100240 0.101315 0.102443 0.103624 0.104860 0.106151 0.107499 0.108904 0.110367 0.111889 0.113472 0.115115 0.116819 0.118586 0.120417 0.122310 0.124268 0.126291 0.128380 0.130534 0.132754 0.135041 0.137394 0.139814 0.142302 0.144856 0.153786 0.151251 0.148783 0.146381 0.144045 0.141775 0.139571 0.137432 0.135358 0.133349 0.131403 0.129522 0.127703 0.125947 0.124252 0.122619 0.121045 0.119531 0.118076 0.116678 0.115337 0.114052 0.112822 0.111646 0.110523 0.109452 0.108433 0.107464 0.106544 0.105673 0.104850 0.104074 0.103344 0.102659 0.102019 0.101422 0.100869 0.100357 0.099888 0.099460 0.099073 0.098725 0.098418 0.098150 0.097920 0.097730 0.097578 0.097464 0.097388 0.097350 0.097350 0.097388 0.097464 0.097578 0.097730 0.097920 0.098150 0.098418 0.098725 0.099073 0.099460 0.099888 0.100357 0.100869 0.101422 0.102019 0.102659 0.103344 0.104074 0.104850 0.105673 0.106544 0.107464 0.108433 0.109452 0.110523 0.111646 0.112822 0.114052 0.115337 0.116678 0.118076 0.119531 0.121045 0.122619 0.124252 0.125947 0.127703 0.129522 0.131403 0.133349 0.135358 0.137432 0.139571 0.141775 0.144045 0.146381 0.148783 0.151251 0.153786 0.162832 0.160318 0.157869 0.155485 0.153167 0.150914 0.148726 0.146602 0.144543 0.142547 0.140615 0.138746 0.136939 0.135194 0.133509 0.131886 0.130321 0.128815 0.127368 0.125977 0.124643 0.123364 0.122140 0.120969 0.119851 0.118784 0.117769 0.116804 0.115888 0.115020 0.114199 0.113426 0.112698 0.112015 0.111376 0.110781 0.110229 0.109719 0.109251 0.108823 0.108437 0.108090 0.107783 0.107516 0.107287 0.107097 0.106945 0.106831 0.106755 0.106717 0.106717 0.106755 0.106831 0.106945 0.107097 0.107287 0.107516 0.107783 0.108090 0.108437 0.108823 0.109251 0.109719 0.110229 0.110781 0.111376 0.112015 0.112698 0.113426 0.114199 0.115020 0.115888 0.116804 0.117769 0.118784 0.119851 0.120969 0.122140 0.123364 0.124643 0.125977 0.127368 0.128815 0.130321 0.131886 0.133509 0.135194 0.136939 0.138746 0.140615 0.142547 0.144543 0.146602 0.148726 0.150914 0.153167 0.155485 0.157869 0.160318 0.162832 0.171991 0.169498 0.167069 0.164704 0.162404 0.160168 0.157996 0.155888 0.153843 0.151862 0.149943 0.148086 0.146291 0.144557 0.142883 0.141269 0.139714 0.138217 0.136777 0.135394 0.134066 0.132793 0.131575 0.130409 0.129296 0.128234 0.127223 0.126261 0.125349 0.124484 0.123666 0.122895 0.122169 0.121488 0.120851 0.120257 0.119707 0.119198 0.118731 0.118304 0.117918 0.117572 0.117266 0.116999 0.116770 0.116580 0.116429 0.116315 0.116240 0.116202 0.116202 0.116240 0.116315 0.116429 0.116580 0.116770 0.116999 0.117266 0.117572 0.117918 0.118304 0.118731 0.119198 0.119707 0.120257 0.120851 0.121488 0.122169 0.122895 0.123666 0.124484 0.125349 0.126261 0.127223 0.128234 0.129296 0.130409 0.131575 0.132793 0.134066 0.135394 0.136777 0.138217 0.139714 0.141269 0.142883 0.144557 0.146291 0.148086 0.149943 0.151862 0.153843 0.155888 0.157996 0.160168 0.162404 0.164704 0.167069 0.169498 0.171991 0.181261 0.178789 0.176380 0.174034 0.171752 0.169534 0.167379 0.165287 0.163257 0.161290 0.159385 0.157541 0.155758 0.154035 0.152371 0.150767 0.149221 0.147732 0.146301 0.144925 0.143604 0.142338 0.141125 0.139965 0.138857 0.137799 0.136792 0.135834 0.134925 0.134063 0.133248 0.132479 0.131755 0.131076 0.130441 0.129849 0.129299 0.128792 0.128325 0.127900 0.127515 0.127170 0.126864 0.126597 0.126369 0.126179 0.126028 0.125914 0.125839 0.125801 0.125801 0.125839 0.125914 0.126028 0.126179 0.126369 0.126597 0.126864 0.127170 0.127515 0.127900 0.128325 0.128792 0.129299 0.129849 0.130441 0.131076 0.131755 0.132479 0.133248 0.134063 0.134925 0.135834 0.136792 0.137799 0.138857 0.139965 0.141125 0.142338 0.143604 0.144925 0.146301 0.147732 0.149221 0.150767 0.152371 0.154035 0.155758 0.157541 0.159385 0.161290 0.163257 0.165287 0.167379 0.169534 0.171752 0.174034 0.176380 0.178789 0.181261 0.190640 0.188188 0.185800 0.183474 0.181211 0.179010 0.176872 0.174796 0.172781 0.170829 0.168937 0.167106 0.165335 0.163623 0.161971 0.160377 0.158840 0.157360 0.155936 0.154568 0.153254 0.151994 0.150788 0.149633 0.148529 0.147477 0.146474 0.145519 0.144613 0.143754 0.142942 0.142176 0.141454 0.140777 0.140143 0.139553 0.139005 0.138498 0.138033 0.137608 0.137224 0.136879 0.136574 0.136307 0.136080 0.135890 0.135739 0.135626 0.135550 0.135513 0.135513 0.135550 0.135626 0.135739 0.135890 0.136080 0.136307 0.136574 0.136879 0.137224 0.137608 0.138033 0.138498 0.139005 0.139553 0.140143 0.140777 0.141454 0.142176 0.142942 0.143754 0.144613 0.145519 0.146474 0.147477 0.148529 0.149633 0.150788 0.151994 0.153254 0.154568 0.155936 0.157360 0.158840 0.160377 0.161971 0.163623 0.165335 0.167106 0.168937 0.170829 0.172781 0.174796 0.176872 0.179010 0.181211 0.183474 0.185800 0.188188 0.190640 0.200124 0.197694 0.195326 0.193020 0.190775 0.188593 0.186472 0.184412 0.182413 0.180475 0.178598 0.176780 0.175021 0.173321 0.171679 0.170095 0.168568 0.167097 0.165682 0.164321 0.163014 0.161761 0.160560 0.159411 0.158312 0.157264 0.156265 0.155314 0.154412 0.153556 0.152746 0.151982 0.151263 0.150588 0.149956 0.149367 0.148820 0.148315 0.147850 0.147426 0.147043 0.146699 0.146394 0.146128 0.145901 0.145711 0.145560 0.145447 0.145372 0.145334 0.145334 0.145372 0.145447 0.145560 0.145711 0.145901 0.146128 0.146394 0.146699 0.147043 0.147426 0.147850 0.148315 0.148820 0.149367 0.149956 0.150588 0.151263 0.151982 0.152746 0.153556 0.154412 0.155314 0.156265 0.157264 0.158312 0.159411 0.160560 0.161761 0.163014 0.164321 0.165682 0.167097 0.168568 0.170095 0.171679 0.173321 0.175021 0.176780 0.178598 0.180475 0.182413 0.184412 0.186472 0.188593 0.190775 0.193020 0.195326 0.197694 0.200124 0.209710 0.207302 0.204955 0.202669 0.200444 0.198280 0.196176 0.194133 0.192150 0.190227 0.188364 0.186559 0.184813 0.183125 0.181494 0.179920 0.178402 0.176940 0.175533 0.174180 0.172881 0.171634 0.170439 0.169295 0.168202 0.167158 0.166163 0.165217 0.164317 0.163465 0.162658 0.161896 0.161179 0.160506 0.159876 0.159288 0.158743 0.158238 0.157775 0.157352 0.156969 0.156626 0.156321 0.156056 0.155829 0.155640 0.155489 0.155376 0.155301 0.155263 0.155263 0.155301 0.155376 0.155489 0.155640 0.155829 0.156056 0.156321 0.156626 0.156969 0.157352 0.157775 0.158238 0.158743 0.159288 0.159876 0.160506 0.161179 0.161896 0.162658 0.163465 0.164317 0.165217 0.166163 0.167158 0.168202 0.169295 0.170439 0.171634 0.172881 0.174180 0.175533 0.176940 0.178402 0.179920 0.181494 0.183125 0.184813 0.186559 0.188364 0.190227 0.192150 0.194133 0.196176 0.198280 0.200444 0.202669 0.204955 0.207302 0.209710 0.219397 0.217011 0.214686 0.212420 0.210214 0.208069 0.205983 0.203957 0.201990 0.200082 0.198232 0.196441 0.194707 0.193031 0.191412 0.189848 0.188341 0.186888 0.185489 0.184144 0.182851 0.181611 0.180422 0.179284 0.178196 0.177157 0.176167 0.175224 0.174328 0.173478 0.172674 0.171915 0.171200 0.170529 0.169900 0.169314 0.168770 0.168267 0.167805 0.167383 0.167000 0.166657 0.166354 0.166088 0.165862 0.165673 0.165523 0.165410 0.165335 0.165297 0.165297 0.165335 0.165410 0.165523 0.165673 0.165862 0.166088 0.166354 0.166657 0.167000 0.167383 0.167805 0.168267 0.168770 0.169314 0.169900 0.170529 0.171200 0.171915 0.172674 0.173478 0.174328 0.175224 0.176167 0.177157 0.178196 0.179284 0.180422 0.181611 0.182851 0.184144 0.185489 0.186888 0.188341 0.189848 0.191412 0.193031 0.194707 0.196441 0.198232 0.200082 0.201990 0.203957 0.205983 0.208069 0.210214 0.212420 0.214686 0.217011 0.219397 0.229181 0.226818 0.224514 0.222269 0.220083 0.217956 0.215888 0.213879 0.211928 0.210035 0.208201 0.206423 0.204702 0.203038 0.201430 0.199877 0.198379 0.196936 0.195546 0.194208 0.192923 0.191690 0.190507 0.189375 0.188292 0.187258 0.186271 0.185332 0.184440 0.183594 0.182792 0.182036 0.181323 0.180654 0.180027 0.179443 0.178900 0.178398 0.177936 0.177515 0.177134 0.176791 0.176488 0.176223 0.175997 0.175809 0.175658 0.175546 0.175471 0.175433 0.175433 0.175471 0.175546 0.175658 0.175809 0.175997 0.176223 0.176488 0.176791 0.177134 0.177515 0.177936 0.178398 0.178900 0.179443 0.180027 0.180654 0.181323 0.182036 0.182792 0.183594 0.184440 0.185332 0.186271 0.187258 0.188292 0.189375 0.190507 0.191690 0.192923 0.194208 0.195546 0.196936 0.198379 0.199877 0.201430 0.203038 0.204702 0.206423 0.208201 0.210035 0.211928 0.213879 0.215888 0.217956 0.220083 0.222269 0.224514 0.226818 0.229181 0.239059 0.236719 0.234437 0.232213 0.230047 0.227939 0.225890 0.223898 0.221963 0.220086 0.218266 0.216502 0.214795 0.213143 0.211546 0.210004 0.208516 0.207082 0.205700 0.204371 0.203094 0.201867 0.200691 0.199564 0.198486 0.197457 0.196475 0.195540 0.194651 0.193808 0.193010 0.192256 0.191545 0.190878 0.190253 0.189670 0.189128 0.188628 0.188167 0.187747 0.187366 0.187025 0.186722 0.186458 0.186232 0.186044 0.185893 0.185781 0.185706 0.185669 0.185669 0.185706 0.185781 0.185893 0.186044 0.186232 0.186458 0.186722 0.187025 0.187366 0.187747 0.188167 0.188628 0.189128 0.189670 0.190253 0.190878 0.191545 0.192256 0.193010 0.193808 0.194651 0.195540 0.196475 0.197457 0.198486 0.199564 0.200691 0.201867 0.203094 0.204371 0.205700 0.207082 0.208516 0.210004 0.211546 0.213143 0.214795 0.216502 0.218266 0.220086 0.221963 0.223898 0.225890 0.227939 0.230047 0.232213 0.234437 0.236719 0.239059 0.249030 0.246712 0.244452 0.242249 0.240104 0.238016 0.235984 0.234010 0.232092 0.230231 0.228425 0.226676 0.224981 0.223342 0.221757 0.220226 0.218748 0.217323 0.215951 0.214630 0.213360 0.212140 0.210970 0.209849 0.208777 0.207752 0.206775 0.205844 0.204959 0.204119 0.203323 0.202572 0.201864 0.201199 0.200575 0.199994 0.199454 0.198954 0.198495 0.198076 0.197695 0.197354 0.197052 0.196788 0.196563 0.196375 0.196225 0.196113 0.196038 0.196001 0.196001 0.196038 0.196113 0.196225 0.196375 0.196563 0.196788 0.197052 0.197354 0.197695 0.198076 0.198495 0.198954 0.199454 0.199994 0.200575 0.201199 0.201864 0.202572 0.203323 0.204119 0.204959 0.205844 0.206775 0.207752 0.208777 0.209849 0.210970 0.212140 0.213360 0.214630 0.215951 0.217323 0.218748 0.220226 0.221757 0.223342 0.224981 0.226676 0.228425 0.230231 0.232092 0.234010 0.235984 0.238016 0.240104 0.242249 0.244452 0.246712 0.249030 0.259089 0.256795 0.254557 0.252376 0.250251 0.248182 0.246169 0.244213 0.242312 0.240466 0.238676 0.236941 0.235260 0.233633 0.232060 0.230540 0.229072 0.227657 0.226293 0.224981 0.223718 0.222506 0.221342 0.220227 0.219161 0.218141 0.217168 0.216241 0.215360 0.214523 0.213731 0.212982 0.212276 0.211613 0.210992 0.210412 0.209873 0.209375 0.208916 0.208498 0.208119 0.207778 0.207477 0.207213 0.206988 0.206801 0.206651 0.206539 0.206464 0.206427 0.206427 0.206464 0.206539 0.206651 0.206801 0.206988 0.207213 0.207477 0.207778 0.208119 0.208498 0.208916 0.209375 0.209873 0.210412 0.210992 0.211613 0.212276 0.212982 0.213731 0.214523 0.215360 0.216241 0.217168 0.218141 0.219161 0.220227 0.221342 0.222506 0.223718 0.224981 0.226293 0.227657 0.229072 0.230540 0.232060 0.233633 0.235260 0.236941 0.238676 0.240466 0.242312 0.244213 0.246169 0.248182 0.250251 0.252376 0.254557 0.256795 0.259089 0.269233 0.266963 0.264748 0.262589 0.260484 0.258435 0.256442 0.254503 0.252619 0.250790 0.249015 0.247294 0.245627 0.244013 0.242451 0.240943 0.239486 0.238080 0.236726 0.235421 0.234167 0.232961 0.231805 0.230696 0.229634 0.228620 0.227652 0.226729 0.225851 0.225018 0.224228 0.223482 0.222779 0.222118 0.221499 0.220920 0.220383 0.219