# vtk DataFile Version 3.0
vtk output
ASCII
DATASET STRUCTURED_POINTS
DIMENSIONS 100 100 1
SPACING 0.409657 0.686556 0
ORIGIN 12.738000 3.646000 0
POINT_DATA 10000
SCALARS RTData float
LOOKUP_TABLE default
2329.463811 2318.144706 2306.855810 2295.599268 2284.377687 2273.194207 2262.052576 2250.957252 2239.913502 2228.927534 2218.006643 2207.159380 2196.395756 2185.727474 2175.168202 2164.733887 2154.443123 2144.317568 2134.382413 2124.666915 2115.204967 2106.035693 2097.204047 2088.761333 2080.765583 2073.281652 2066.380870 2060.140058 2054.639698 2049.961115 2046.182632 2043.374914 2041.595956 2040.886477 2041.266591 2042.734510 2045.267666 2048.826148 2053.357866 2058.804628 2065.108341 2072.216734 2080.088300 2088.696384 2098.032479 2108.108826 2118.960362 2130.645886 2143.248142 2156.872242 2171.641599 2187.690376 2205.151487 2224.139655 2244.729953 2266.933466 2290.672836 2315.761482 2341.893911 2368.665222 2395.647101 2422.506470 2449.066235 2475.250113 2500.997674 2526.227373 2550.839363 2574.729671 2597.802396 2619.977379 2641.194061 2661.412711 2680.613877 2698.796715 2715.976606 2732.182413 2747.453617 2761.837530 2775.386737 2788.156867 2800.204770 2811.587143 2822.359635 2832.576375 2842.289864 2851.551050 2860.409410 2868.912886 2877.107609 2885.037474 2892.743690 2900.264421 2907.634574 2914.885754 2922.046348 2929.141700 2936.194338 2943.224216 2950.248967 2957.284135 2309.432669 2297.977085 2286.540849 2275.125194 2263.731736 2252.362541 2241.020190 2229.707872 2218.429481 2207.189735 2195.994320 2184.850056 2173.765097 2162.749173 2151.813873 2140.972989 2130.242926 2119.643183 2109.196934 2098.931705 2088.880154 2079.080969 2069.579843 2060.430508 2051.695723 2043.448071 2035.770333 2028.755087 2022.503108 2017.120105 2012.711447 2009.374906 2007.192048 2006.219637 2006.482949 2007.972800 2010.647245 2014.437630 2019.257570 2025.012940 2031.611300 2038.969791 2047.021300 2055.719137 2065.040676 2074.990419 2085.602773 2096.944602 2109.117269 2122.257438 2136.535277 2152.148043 2169.306523 2188.212094 2209.023939 2231.819548 2256.556062 2283.043108 2310.939239 2339.786175 2369.091738 2398.437522 2427.537016 2456.205911 2484.300881 2511.685471 2538.225915 2563.798792 2588.299284 2611.646611 2633.786484 2654.691190 2674.357923 2692.805946 2710.073003 2726.211410 2741.284123 2755.361036 2768.515686 2780.822471 2792.354467 2803.181895 2813.371293 2822.985406 2832.083683 2840.723108 2848.958924 2856.844846 2864.432671 2871.771479 2878.906823 2885.880165 2892.728660 2899.485231 2906.178829 2912.834789 2919.475215 2926.119352 2932.783930 2939.483469 2290.391892 2278.829582 2267.276887 2255.734156 2244.202034 2232.681523 2221.174036 2209.681478 2198.206326 2186.751744 2175.321700 2163.921126 2152.556103 2141.234084 2129.964178 2118.757485 2107.627519 2096.590727 2085.667120 2074.881068 2064.262253 2053.846840 2043.678874 2033.811909 2024.310828 2015.253753 2006.733760 1998.859970 1991.757232 1985.563387 1980.422920 1976.476231 1973.844858 1972.614981 1972.823432 1974.450871 1977.424802 1981.631452 1986.932586 1993.182597 2000.242663 2007.990818 2016.328412 2025.184142 2034.516903 2044.318465 2054.616666 2065.479457 2077.019773 2089.400651 2102.839037 2117.605184 2134.012439 2152.390615 2173.037543 2196.151342 2221.760161 2249.677942 2279.511134 2310.720967 2342.721637 2374.976550 2407.052561 2438.619933 2469.423239 2499.254514 2527.940104 2555.337750 2581.337874 2605.865253 2628.879400 2650.373151 2670.369548 2688.917398 2706.086040 2721.959834 2736.632833 2750.203960 2762.772879 2774.436638 2785.287113 2795.409294 2804.880527 2813.770887 2822.144760 2830.063217 2837.586156 2844.773036 2851.681917 2858.367615 2864.880091 2871.263625 2877.556758 2883.792684 2889.999853 2896.202595 2902.421704 2908.674943 2914.977481 2921.342256 2272.373751 2260.737780 2249.103188 2237.469512 2225.836504 2214.204176 2202.572849 2190.943208 2179.316379 2167.694011 2156.078384 2144.472535 2132.880419 2121.307104 2109.759021 2098.244269 2086.773011 2075.357964 2064.015042 2052.764161 2041.630287 2030.644775 2019.847087 2009.286961 1999.027130 1989.146587 1979.744309 1970.943038 1962.892179 1955.768059 1949.768778 1945.100404 1941.952625 1940.466504 1940.703675 1942.630016 1946.122047 1950.992949 1957.026316 1964.005834 1971.735206 1980.048586 1988.814588 1997.937182 2007.355894 2017.046865 2027.025664 2037.352420 2048.139677 2059.563099 2071.874382 2085.413671 2100.614134 2117.984008 2138.045286 2161.216914 2187.668557 2217.220145 2249.358371 2283.362662 2318.462754 2353.956042 2389.261116 2423.920708 2457.579975 2489.961701 2520.848949 2550.076362 2577.527150 2603.132191 2626.868670 2648.756873 2668.854823 2687.251210 2704.057416 2719.399530 2733.411026 2746.226542 2757.976899 2768.785296 2778.764524 2788.015097 2796.624393 2804.667330 2812.209364 2819.311789 2826.037073 2832.450598 2838.617846 2844.599976 2850.450872 2856.216358 2861.934767 2867.638005 2873.352643 2879.100851 2884.901168 2890.769108 2896.717654 2902.757653 2255.403621 2243.729940 2232.051235 2220.366357 2208.674297 2196.974224 2185.265514 2173.547801 2161.821027 2150.085507 2138.342011 2126.591862 2114.837062 2103.080446 2091.325879 2079.578515 2067.845122 2056.134507 2044.458082 2032.830605 2021.271174 2009.804565 1998.463040 1987.288801 1976.337312 1965.681763 1955.418929 1945.676513 1936.621491 1928.467590 1921.477392 1915.950831 1912.190126 1910.438197 1910.808273 1913.242452 1917.527526 1923.356938 1930.400663 1938.354023 1946.960100 1956.014119 1965.359615 1974.882843 1984.508631 1994.199024 2003.955231 2013.823263 2023.903865 2034.367830 2045.478140 2057.619541 2071.331084 2087.322237 2106.425064 2129.417102 2156.718535 2188.144355 2222.939482 2260.063598 2298.480532 2337.307289 2375.842750 2413.541818 2449.978565 2484.816818 2517.792798 2548.708103 2577.428833 2603.886292 2628.075708 2650.051068 2669.915958 2687.811667 2703.904368 2718.373079 2731.399497 2743.160177 2753.820939 2763.533126 2772.431140 2780.630812 2788.228430 2795.301170 2801.911044 2808.114361 2813.973114 2819.558558 2824.944134 2830.196469 2835.371248 2840.513392 2845.658852 2850.836522 2856.069773 2861.377623 2866.775593 2872.276362 2877.890266 2883.625691 2239.498903 2227.825759 2216.143310 2204.449887 2192.743907 2181.023899 2169.288527 2157.536624 2145.767228 2133.979631 2122.173438 2110.348635 2098.505683 2086.645631 2074.770267 2062.882305 2050.985641 2039.085684 2027.189807 2015.307956 2003.453486 1991.644333 1979.904666 1968.267236 1956.776780 1945.494956 1934.507527 1923.934686 1913.945358 1904.775332 1896.745335 1890.266150 1885.803776 1883.775369 1884.393334 1887.559470 1892.906107 1899.944436 1908.200689 1917.281700 1926.885066 1936.785699 1946.818389 1956.864041 1966.841383 1976.704028 1986.442435 1996.090516 2005.737191 2015.544188 2025.773075 2036.826209 2049.304608 2064.069983 2082.246936 2105.019301 2133.125823 2166.367471 2203.675734 2243.655347 2285.032134 2326.796863 2368.177051 2408.569453 2447.485600 2484.520454 2519.341184 2551.689817 2581.392396 2608.367176 2632.625929 2654.265673 2673.451936 2690.397388 2705.340264 2718.525903 2730.192965 2740.564319 2749.841768 2758.203448 2765.802780 2772.768082 2779.202355 2785.183896 2790.770693 2796.012792 2800.968967 2805.712071 2810.318125 2814.854004 2819.373178 2823.916993 2828.517354 2833.199087 2837.981677 2842.880501 2847.907711 2853.072875 2858.383468 2863.845245 2224.668117 2213.035338 2201.391299 2189.734012 2178.061548 2166.372051 2154.663760 2142.935034 2131.184378 2119.410483 2107.612266 2095.788928 2083.940018 2072.065524 2060.165983 2048.242627 2036.297578 2024.334107 2012.356983 2000.372966 1988.391480 1976.425589 1964.493395 1952.620105 1940.841136 1929.206838 1917.789819 1906.696380 1896.084276 1886.189342 1877.361209 1870.096959 1865.030385 1862.796481 1863.748543 1867.733377 1874.181221 1882.400527 1891.791768 1901.906676 1912.427724 1923.131131 1933.856731 1944.488561 1954.944755 1965.175048 1975.164803 1984.944907 1994.607042 2004.324498 2014.380588 2025.209796 2037.457200 2052.047396 2070.198831 2093.218951 2121.950968 2156.212011 2194.869817 2236.454094 2279.636753 2323.364796 2366.813322 2409.306553 2450.260104 2489.153645 2525.530919 2559.020180 2589.364108 2616.444928 2640.291809 2661.065222 2679.023147 2694.480307 2707.771147 2719.222462 2729.136556 2737.782886 2745.395348 2752.172711 2758.280444 2763.852831 2768.994995 2773.785567 2778.282503 2782.534822 2786.596653 2790.532068 2794.407269 2798.280814 2802.199618 2806.199628 2810.308024 2814.545342 2818.927118 2823.465077 2828.168002 2833.042356 2838.092763 2843.322360 2210.910268 2199.358435 2187.795820 2176.220337 2164.629959 2153.022728 2141.396783 2129.750373 2118.081899 2106.389935 2094.673281 2082.931007 2071.162522 2059.367654 2047.546754 2035.700837 2023.831756 2011.942450 2000.037266 1988.122418 1976.206616 1964.301980 1952.425361 1940.600301 1928.859998 1917.251898 1905.844893 1894.740829 1884.092893 1874.134368 1865.219873 1857.870259 1852.775935 1850.656505 1851.925420 1856.407794 1863.454468 1872.303343 1882.319129 1893.043067 1904.158339 1915.444582 1926.743739 1937.938857 1948.943469 1959.700015 1970.187064 1980.435328 1990.551013 2000.743037 2011.350854 2022.873164 2035.998999 2051.628914 2070.833936 2094.656571 2123.726330 2157.921546 2196.412304 2238.032290 2281.622515 2326.172565 2370.817971 2414.788963 2457.363091 2497.843283 2535.570790 2569.974290 2600.642097 2627.386918 2650.268013 2669.556260 2685.659724 2699.043275 2710.167167 2719.451543 2727.261776 2733.906367 2739.640828 2744.673619 2749.172221 2753.268617 2757.064273 2760.635371 2764.039608 2767.325068 2770.538691 2773.729791 2776.947474 2780.235975 2783.631851 2787.163625 2790.852814 2794.715293 2798.762553 2803.002703 2807.441249 2812.081669 2816.925861 2821.974479 2198.214504 2186.784074 2175.345766 2163.897620 2152.437759 2140.964410 2129.475932 2117.970845 2106.447868 2094.905963 2083.344386 2071.762755 2060.161131 2048.540119 2036.901001 2025.245900 2013.578004 2001.901855 1990.223743 1978.552238 1966.898935 1955.279498 1943.715155 1932.234884 1920.878637 1909.702197 1898.784561 1888.239205 1878.231053 1869.000802 1860.895283 1854.391325 1850.074715 1848.512149 1850.012314 1854.445391 1861.314453 1869.996966 1879.933903 1890.693772 1901.962790 1913.514426 1925.181385 1936.835588 1948.376405 1959.727647 1970.845946 1981.744074 1992.528594 2003.440665 2014.881795 2027.414923 2041.745561 2058.683648 2079.064894 2103.603954 2132.698873 2166.288805 2203.871904 2244.665889 2287.788657 2332.366585 2377.561126 2422.545773 2466.467345 2508.420275 2547.463611 2582.708715 2613.476945 2639.462776 2660.795906 2677.954042 2691.590755 2702.380472 2710.930013 2717.748476 2723.248768 2727.760537 2731.544639 2734.805818 2737.703112 2740.358350 2742.863389 2745.286773 2747.680334 2750.085664 2752.539418 2755.076130 2757.728316 2760.525139 2763.491142 2766.645789 2770.003740 2773.575501 2777.368175 2781.386161 2785.631737 2790.105534 2794.806905 2799.734220 2186.560126 2175.290547 2164.018306 2152.741768 2141.459436 2130.169979 2118.872273 2107.565444 2096.248918 2084.922484 2073.586374 2062.241348 2050.888813 2039.530966 2028.170970 2016.813187 2005.463471 1994.129556 1982.821567 1971.552699 1960.340146 1949.206362 1938.180815 1927.302446 1916.623125 1906.212554 1896.165156 1886.609565 1877.721028 1869.735736 1862.962516 1857.780135 1854.599853 1853.776565 1855.488911 1859.662062 1865.997159 1874.081492 1883.497806 1893.884942 1904.953641 1916.478949 1928.285239 1940.231242 1952.197759 1964.080344 1975.793053 1987.295586 1998.653360 2010.110751 2022.122383 2035.311992 2050.392206 2068.085335 2089.046902 2113.780095 2142.550541 2175.335016 2211.833007 2251.534213 2293.802811 2337.938956 2383.199350 2428.778219 2473.760156 2517.066499 2557.441033 2593.556853 2624.311998 2649.212788 2668.537390 2683.115908 2693.949356 2701.948589 2707.847541 2712.211988 2715.474236 2717.964984 2719.936961 2721.582117 2723.044679 2724.431543 2725.820818 2727.269067 2728.817525 2730.497314 2732.333420 2734.347177 2736.557313 2738.980039 2741.628789 2744.514032 2747.643327 2751.021579 2754.651404 2758.533524 2762.667141 2767.050254 2771.679936 2776.552552 2175.916937 2164.845821 2153.779349 2142.716377 2131.655973 2120.597456 2109.540458 2098.484971 2087.431430 2076.380793 2065.334646 2054.295330 2043.266091 2032.251276 2021.256564 2010.289268 1999.358710 1988.476704 1977.658177 1966.921982 1956.291950 1945.798290 1935.479428 1925.384443 1915.576263 1906.135809 1897.167180 1888.803748 1881.214429 1874.608115 1869.232269 1865.359415 1863.255310 1863.129205 1865.080794 1869.070005 1874.927933 1882.401745 1891.208120 1901.073645 1911.755604 1923.047186 1934.773616 1946.783888 1958.940434 1971.108618 1983.152924 1994.960800 2006.525151 2018.068005 2030.091068 2043.283375 2058.377786 2076.049373 2096.854624 2121.186422 2149.240678 2181.004299 2216.270982 2254.678908 2295.754136 2338.941721 2383.611555 2429.031692 2474.306371 2518.285630 2559.489884 2596.181887 2626.785618 2650.580247 2668.029292 2680.345949 2688.836069 2694.567609 2698.338346 2700.739778 2702.216175 2703.102281 2703.647830 2704.036053 2704.398899 2704.829617 2705.392907 2706.132962 2707.079726 2708.253663 2709.669211 2711.337058 2713.265443 2715.460746 2717.927677 2720.669320 2723.687173 2726.981236 2730.550175 2734.391502 2738.501775 2742.876790 2747.511746 2752.401400 2166.245908 2155.408310 2144.584444 2133.773775 2122.976065 2112.191429 2101.420403 2090.664022 2079.923909 2069.202390 2058.502622 2047.828749 2037.186097 2026.581403 2016.023097 2005.521660 1995.090050 1984.744248 1974.503936 1964.393343 1954.442317 1944.687658 1935.174785 1925.959777 1917.111833 1908.716085 1900.876601 1893.719100 1887.392466 1882.067526 1877.930958 1875.172165 1873.962421 1874.429005 1876.631463 1880.548996 1886.084428 1893.082630 1901.355247 1910.703085 1920.931173 1931.855708 1943.304455 1955.112672 1967.116359 1979.145174 1991.022509 2002.594693 2013.822764 2024.918692 2036.399085 2048.978439 2063.406668 2080.355242 2100.352484 2123.745120 2150.682862 2181.128816 2214.890005 2251.654730 2291.023413 2332.523467 2375.602040 2419.591344 2463.641710 2506.625151 2547.049189 2583.117839 2613.162351 2636.383588 2653.210222 2664.833759 2672.530873 2677.357098 2680.137330 2681.519702 2682.007552 2681.978341 2681.704307 2681.375562 2681.121577 2681.028652 2681.153070 2681.530623 2682.183389 2683.124486 2684.361350 2685.897886 2687.735795 2689.875323 2692.315632 2695.054960 2698.090703 2701.419467 2705.037136 2708.938954 2713.119622 2717.573398 2722.294200 2727.275696 2157.500117 2146.927951 2136.380022 2125.856468 2115.357809 2104.885022 2094.439614 2084.023721 2073.640218 2063.292844 2052.986360 2042.726729 2032.521331 2022.379218 2012.311433 2002.331375 1992.455255 1982.702640 1973.097110 1963.667054 1954.446614 1945.476805 1936.806817 1928.495462 1920.612737 1913.241320 1906.477767 1900.432950 1895.231095 1891.006606 1887.897850 1886.037497 1885.539939 1886.487737 1888.920210 1892.827443 1898.151455 1904.793740 1912.626253 1921.502227 1931.264016 1941.746588 1952.776712 1964.169119 1975.722449 1987.220584 1998.450001 2009.249245 2019.599713 2029.726115 2040.128566 2051.507270 2064.632712 2080.222659 2098.841086 2120.826860 2146.274368 2175.071733 2206.967053 2241.624901 2278.655290 2317.615567 2357.990357 2399.152221 2440.305020 2480.421136 2518.213830 2552.237419 2581.210016 2604.457739 2622.106556 2634.833826 2643.496680 2648.956764 2652.045257 2653.513742 2653.972777 2653.872663 2653.525058 2653.138088 2652.847969 2652.742557 2652.877603 2653.287676 2653.993446 2655.006541 2656.332776 2657.974269 2659.930780 2662.200538 2664.780716 2667.667694 2670.857202 2674.344413 2678.124000 2682.190209 2686.536916 2691.157705 2696.045931 2701.194798 2149.625880 2139.347508 2129.104900 2118.898873 2108.730708 2098.602229 2088.515893 2078.474900 2068.483311 2058.546191 2048.669779 2038.861674 2029.131067 2019.489005 2009.948699 2000.525890 1991.239276 1982.111012 1973.167285 1964.438979 1955.962424 1947.780223 1939.942131 1932.505928 1925.538195 1919.114854 1913.321228 1908.251344 1904.006128 1900.690132 1898.406608 1897.251004 1897.303455 1898.621340 1901.233275 1905.135795 1910.293285 1916.640778 1924.088338 1932.525302 1941.822715 1951.832737 1962.384564 1973.277813 1984.277010 1995.115981 2005.527204 2015.310771 2024.436111 2033.130523 2041.897565 2051.456026 2062.636924 2076.259933 2092.981555 2113.149369 2136.760600 2163.559160 2193.175868 2225.215648 2259.278883 2294.944680 2331.738515 2369.094587 2406.319707 2442.571929 2476.880502 2508.241526 2535.795283 2559.010162 2577.744171 2592.154679 2602.600744 2609.648623 2614.055085 2616.614829 2617.999560 2618.703421 2619.065367 2619.311328 2619.590500 2620.001144 2620.607805 2621.452621 2622.562758 2623.955324 2625.640647 2627.624445 2629.909272 2632.495460 2635.381732 2638.565597 2642.043606 2645.811540 2649.864532 2654.197185 2658.803668 2663.677802 2668.813150 2674.203090 2142.563997 2132.603990 2122.691902 2112.829183 2103.017812 2093.260382 2083.560202 2073.921405 2064.349076 2054.849407 2045.429855 2036.099342 2026.868473 2017.749789 2008.758057 1999.910597 1991.227654 1982.732819 1974.453486 1966.421359 1958.672983 1951.250280 1944.201058 1937.579424 1931.446032 1925.868025 1920.918558 1916.675706 1913.220619 1910.634805 1908.996549 1908.376633 1908.833755 1910.410184 1913.128281 1916.988378 1921.968187 1928.023495 1935.089474 1943.081648 1951.895388 1961.402816 1971.446143 1981.827144 1992.294770 2002.539327 2012.214608 2021.020313 2028.849162 2035.917757 2042.773893 2050.197522 2059.093899 2070.388156 2084.840800 2102.805472 2124.153172 2148.461163 2175.248082 2204.080295 2234.572203 2266.348919 2299.006029 2332.076972 2365.012731 2397.180677 2427.891972 2456.462353 2482.293996 2504.943610 2524.142420 2539.781644 2551.931957 2560.913595 2567.294333 2571.743781 2574.869179 2577.143050 2578.906482 2580.398520 2581.785510 2583.183502 2584.673898 2586.314101 2588.144725 2590.194498 2592.483624 2595.026100 2597.831331 2600.905257 2604.251157 2607.870213 2611.761939 2615.924499 2620.354955 2625.049478 2630.003522 2635.211974 2640.669287 2646.369599 2136.251030 2126.630107 2117.069512 2107.571239 2098.137854 2088.772585 2079.479428 2070.263254 2061.129943 2052.086524 2043.141341 2034.304233 2025.586736 2017.002311 2008.566597 2000.297685 1992.216417 1984.346713 1976.715904 1969.355079 1962.299418 1955.588489 1949.266473 1943.382273 1937.989440 1933.145834 1928.912956 1925.354851 1922.536526 1920.521879 1919.371174 1919.138207 1919.867391 1921.591044 1924.327154 1928.077834 1932.828494 1938.547582 1945.186482 1952.678999 1960.939610 1969.859463 1979.298802 1989.074312 1998.940769 2008.572099 2017.565501 2025.523757 2032.253512 2037.961771 2043.246669 2048.926519 2055.904361 2065.080596 2077.186510 2092.540935 2110.974852 2132.036655 2155.240928 2180.176090 2206.501419 2233.908101 2262.080337 2290.666616 2319.263970 2347.417574 2374.637441 2400.430287 2424.338236 2445.972078 2465.032974 2481.333588 2494.836990 2505.699931 2514.265400 2520.981557 2526.300060 2530.611677 2534.227172 2537.383748 2540.259573 2542.988074 2545.669486 2548.379492 2551.175509 2554.101228 2557.189886 2560.466646 2563.950358 2567.654861 2571.589978 2575.762284 2580.175711 2584.832030 2589.731257 2594.871985 2600.251661 2605.866831 2611.713344 2617.786523 2130.620546 2121.355655 2112.163433 2103.046288 2094.007223 2085.049928 2076.178878 2067.399445 2058.718019 2050.142145 2041.680673 2033.343918 2025.143844 2017.094250 2009.210981 2001.512142 1994.018324 1986.752831 1979.741905 1973.014927 1966.604592 1960.547025 1954.881819 1949.651953 1944.903558 1940.685488 1937.048641 1934.045020 1931.726490 1930.143257 1929.342106 1929.364492 1930.244584 1932.007425 1934.667311 1938.226468 1942.674032 1947.985199 1954.120289 1961.023335 1968.619571 1976.810995 1985.468791 1994.421204 2003.436424 2012.205685 2020.349335 2027.495939 2033.464388 2038.439377 2042.958945 2047.749671 2053.583033 2061.181157 2071.097743 2083.581325 2098.542201 2115.674009 2134.616521 2155.049256 2176.709732 2199.374207 2222.828630 2246.841918 2271.146602 2295.429919 2319.337269 2342.487684 2364.497985 2385.010822 2403.723735 2420.419660 2434.997660 2447.492981 2458.069541 2466.981024 2474.518257 2480.965577 2486.576181 2491.563746 2496.103446 2500.336872 2504.377778 2508.317362 2512.228667 2516.170109 2520.188256 2524.320021 2528.594397 2533.033846 2537.655432 2542.471755 2547.491720 2552.721196 2558.163565 2563.820192 2569.690827 2575.773939 2582.067005 2588.566750 2125.604245 2116.708779 2107.897985 2099.174531 2090.541686 2082.003397 2073.564389 2065.230269 2057.007637 2048.904210 2040.928957 2033.092240 2025.405959 2017.883715 2010.540964 2003.395179 1996.466005 1989.775400 1983.347761 1977.210015 1971.391671 1965.924808 1960.843986 1956.186069 1951.989922 1948.295976 1945.145643 1942.580569 1940.641720 1939.368312 1938.796609 1938.958616 1939.880718 1941.582307 1944.074442 1947.358550 1951.425159 1956.252545 1961.805145 1968.031442 1974.860916 1982.199551 1989.923314 1997.869520 2005.827800 2013.537674 2020.709476 2027.091420 2032.580951 2037.316590 2041.671857 2046.161949 2051.337249 2057.696884 2065.612660 2075.270871 2086.666134 2099.658189 2114.054815 2129.675600 2146.379862 2164.065461 2182.650278 2202.045234 2222.125634 2242.707834 2263.538374 2284.300280 2304.636179 2324.182769 2342.609006 2359.651120 2375.138864 2389.007885 2401.294737 2412.116115 2421.639658 2430.055515 2437.554763 2444.316164 2450.499769 2456.244983 2461.671099 2466.878975 2471.953094 2476.963632 2481.968390 2487.014517 2492.140044 2497.375227 2502.743731 2508.263669 2513.948515 2519.807904 2525.848318 2532.073690 2538.485912 2545.085266 2551.870791 2558.840580 2121.132948 2112.617054 2104.197291 2095.876428 2087.657804 2079.545413 2071.543988 2063.659096 2055.897245 2048.265990 2040.774046 2033.431413 2026.249492 2019.241213 2012.421146 2005.805615 1999.412790 1993.262765 1987.377597 1981.781319 1976.499890 1971.561101 1966.994408 1962.830684 1959.101904 1955.840744 1953.080101 1950.852553 1949.189741 1948.121699 1947.676100 1947.877431 1948.746047 1950.297109 1952.539374 1955.473837 1959.092199 1963.375140 1968.290293 1973.789817 1979.807407 1986.254659 1993.016976 1999.949975 2006.878963 2013.606674 2019.936580 2025.716013 2030.889785 2035.537728 2039.871076 2044.189068 2048.818948 2054.059373 2060.136140 2067.177250 2075.215118 2084.215822 2094.122757 2104.897466 2116.545790 2129.124745 2142.729205 2157.459008 2173.370948 2190.427790 2208.463594 2227.182371 2246.192899 2265.065868 2283.392921 2300.832452 2317.136330 2332.158329 2345.847846 2358.233604 2369.402449 2379.477923 2388.601935 2396.921002 2404.577043 2411.701892 2418.414487 2424.819823 2431.008983 2437.059791 2443.037815 2448.997521 2454.983500 2461.031687 2467.170539 2473.422139 2479.803214 2486.326053 2492.999317 2499.828746 2506.817766 2513.967994 2521.279664 2528.751969 2117.137397 2109.008346 2100.986212 2093.073690 2085.274002 2077.590968 2070.029088 2062.593625 2055.290700 2048.127384 2041.111798 2034.253212 2027.562144 2021.050454 2014.731427 2008.619842 2002.732023 1997.085862 1991.700802 1986.597778 1981.799114 1977.328348 1973.210005 1969.469310 1966.131848 1963.223189 1960.768503 1958.792196 1957.317582 1956.366592 1955.959501 1956.114586 1956.847629 1958.171150 1960.093310 1962.616462 1965.735393 1969.435319 1973.689684 1978.457818 1983.682498 1989.287635 1995.176553 2001.231896 2007.318910 2013.294410 2019.023222 2024.401074 2029.377973 2033.972301 2038.267926 2042.394545 2046.498793 2050.715566 2055.146926 2059.853524 2064.860994 2070.180249 2075.836829 2081.902506 2088.522330 2095.929951 2104.441414 2114.414527 2126.165814 2139.859874 2155.419388 2172.511265 2190.620432 2209.166525 2227.606675 2245.496826 2262.514110 2278.454160 2293.215737 2306.780370 2319.191308 2330.534124 2340.920262 2350.474006 2359.322820 2367.590607 2375.393328 2382.836406 2390.013428 2397.005757 2403.882792 2410.702648 2417.513107 2424.352734 2431.252049 2438.234702 2445.318586 2452.516861 2459.838874 2467.290941 2474.877028 2482.599302 2490.458582 2498.454706 2113.548862 2105.811458 2098.191016 2090.689993 2083.311303 2076.058381 2068.935263 2061.946651 2055.098004 2048.395611 2041.846684 2035.459438 2029.243172 2023.208342 2017.366627 2011.730964 2006.315576 2001.135957 1996.208820 1991.551995 1987.184275 1983.125188 1979.394720 1976.012961 1972.999722 1970.374132 1968.154281 1966.356968 1964.997625 1964.090454 1963.648744 1963.685235 1964.212273 1965.241506 1966.782918 1968.843219 1971.423744 1974.518141 1978.110060 1982.171029 1986.658634 1991.515213 1996.667395 2002.027085 2007.494609 2012.964677 2018.335150 2023.517313 2028.444892 2033.078466 2037.403126 2041.419958 2045.134532 2048.546785 2051.646214 2054.414897 2056.839097 2058.928669 2060.742619 2062.419187 2064.208895 2066.506410 2069.867498 2074.978672 2082.533017 2093.002599 2106.413654 2122.303064 2139.898573 2158.369989 2176.999761 2195.245391 2212.735965 2229.244027 2244.653864 2258.933410 2272.111087 2284.257113 2295.468588 2305.857770 2315.543045 2324.642195 2333.267558 2341.522750 2349.500661 2357.282454 2364.937368 2372.523118 2380.086736 2387.665681 2395.289100 2402.979121 2410.752105 2418.619778 2426.590239 2434.668809 2442.858732 2451.161737 2459.578476 2468.108862 2110.299549 2102.956538 2095.739802 2088.651394 2081.693741 2074.869700 2068.182619 2061.636404 2055.235589 2048.985411 2042.891882 2036.961865 2031.203141 2025.624475 2020.235662 2015.047565 2010.072115 2005.322297 2000.812071 1996.556263 1992.570371 1988.870317 1985.472100 1982.391385 1979.643005 1977.240457 1975.195421 1973.517472 1972.214122 1971.291385 1970.754911 1970.611526 1970.870618 1971.544701 1972.648610 1974.197374 1976.203303 1978.673006 1981.604828 1984.986928 1988.795975 1992.996432 1997.540446 2002.368452 2007.410616 2012.589100 2017.820838 2023.020102 2028.099885 2032.971285 2037.540876 2041.707221 2045.358735 2048.375520 2050.637150 2052.037009 2052.502043 2052.015863 2050.643766 2048.560798 2046.087093 2043.735026 2042.261837 2042.684433 2046.147140 2053.535588 2064.998185 2079.841830 2096.928773 2115.144933 2133.624740 2151.773203 2169.213045 2185.725507 2201.204004 2215.621001 2229.004452 2241.420536 2252.960540 2263.730594 2273.843542 2283.412526 2292.546047 2301.344335 2309.896925 2318.281308 2326.562529 2334.793553 2343.016212 2351.262535 2359.556253 2367.914339 2376.348453 2384.866219 2393.472303 2402.169280 2410.958312 2419.839651 2428.813009 2437.877813 2107.322801 2100.375275 2093.562660 2086.886466 2080.348472 2073.950770 2067.695820 2061.586510 2055.626213 2049.818855 2044.168981 2038.681821 2033.363359 2028.220392 2023.260577 2018.492472 2013.925546 2009.570163 2005.437527 2001.539566 1997.888760 1994.497871 1991.379579 1988.545989 1986.008017 1983.774655 1981.852195 1980.243574 1978.948168 1977.962516 1977.282455 1976.906681 1976.840740 1977.099505 1977.706497 1978.690165 1980.078871 1981.896464 1984.159366 1986.875052 1990.041474 1993.646929 1997.670059 2002.079755 2006.834775 2011.882825 2017.158824 2022.582036 2028.051976 2033.443390 2038.601368 2043.338544 2047.437134 2050.658883 2052.765056 2053.546130 2052.857176 2050.652178 2047.011658 2042.164145 2036.510562 2030.665307 2025.518584 2022.280074 2022.362935 2026.917592 2036.179099 2049.318668 2064.999994 2081.979337 2099.339659 2116.476658 2133.017977 2148.750829 2163.571245 2177.450504 2190.412590 2202.518283 2213.853184 2224.518191 2234.621608 2244.272553 2253.575534 2262.626231 2271.508548 2280.292958 2289.036076 2297.781286 2306.560144 2315.394238 2324.297236 2333.276841 2342.336534 2351.477008 2360.697270 2369.995458 2379.369399 2388.816971 2398.336314 2407.925942 2104.553130 2098.000873 2091.591615 2085.326196 2079.205602 2073.231001 2067.403789 2061.725630 2056.198517 2050.824826 2045.607375 2040.549494 2035.655088 2030.928701 2026.375576 2022.001707 2017.813873 2013.819645 2010.027368 2006.446085 2003.085406 1999.955272 1997.065618 1994.425862 1992.044192 1989.926602 1988.075662 1986.489123 1985.158739 1984.070233 1983.205941 1982.551478 1982.105245 1981.885610 1981.930173 1982.287504 1983.007206 1984.133192 1985.700951 1987.737373 1990.261585 1993.285826 1996.815840 2000.850425 2005.379774 2010.382211 2015.818946 2021.626638 2027.707977 2033.921060 2040.069204 2045.893954 2051.075441 2055.245770 2058.021317 2059.056187 2058.109663 2055.109140 2050.187746 2043.690377 2036.164145 2028.358835 2021.246489 2016.020461 2013.960589 2016.051615 2022.511593 2032.694132 2045.490361 2059.801006 2074.764096 2089.779285 2104.456953 2118.560925 2131.964102 2144.617369 2156.527941 2167.743693 2178.341019 2188.414786 2198.069563 2207.411815 2216.543097 2225.554510 2234.522755 2243.508041 2252.553841 2261.688246 2270.926416 2280.273554 2289.727906 2299.283397 2308.931747 2318.664009 2328.471590 2338.346855 2348.283422 2358.276253 2368.321606 2378.416916 2101.926067 2095.767855 2089.760351 2083.903627 2078.197763 2072.642869 2067.239118 2061.986779 2056.886265 2051.938176 2047.143360 2042.502975 2038.018555 2033.692085 2029.526073 2025.523620 2021.688491 2018.025157 2014.538831 2011.235451 2008.121620 2005.204456 2002.491329 1999.989419 1997.705020 1995.642474 1993.802584 1992.180386 1990.762417 1989.524458 1988.432713 1987.453360 1986.571923 1985.811031 1985.229183 1984.901766 1984.902260 1985.293683 1986.128022 1987.448807 1989.294027 1991.698389 1994.694545 1998.312982 2002.580069 2007.513564 2013.114838 2019.357290 2026.171065 2033.425032 2040.907984 2048.311989 2055.222753 2061.126001 2065.444976 2067.625237 2067.264592 2064.244811 2058.795455 2051.458298 2042.994905 2034.304386 2026.374983 2020.233516 2016.827002 2016.810458 2020.338125 2027.032954 2036.176226 2046.965240 2058.688502 2070.791764 2082.877922 2094.682504 2106.046038 2116.890409 2127.200117 2137.007344 2146.379510 2155.408186 2164.198645 2172.859788 2181.49469