# vtk DataFile Version 3.0
vtk output
ASCII
DATASET STRUCTURED_POINTS
DIMENSIONS 100 100 1
SPACING 0.409657 0.686556 0
ORIGIN 12.738000 3.646000 0
POINT_DATA 10000
SCALARS RTData float
LOOKUP_TABLE default
2347.308799 2335.999242 2324.724109 2313.485360 2302.285385 2291.127069 2280.013864 2268.949882 2257.939995 2246.989953 2236.106531 2225.297685 2214.572751 2203.942671 2193.420253 2183.020486 2172.760895 2162.661962 2152.747601 2143.045693 2133.588687 2124.414230 2115.565821 2107.093417 2099.053916 2091.511388 2084.536877 2078.207567 2072.605059 2067.812583 2063.911058 2060.974165 2059.062941 2058.220693 2058.469235 2059.807316 2062.211706 2065.640776 2070.039906 2075.347769 2081.502594 2088.447774 2096.136545 2104.535695 2113.628468 2123.416832 2133.923236 2145.191841 2157.289011 2170.302599 2184.339293 2199.519044 2215.965616 2233.792635 2253.085491 2273.880591 2296.143964 2319.749413 2344.451831 2369.856334 2395.456232 2420.884332 2446.086588 2471.096817 2495.870587 2520.301645 2544.264372 2567.638060 2590.318004 2612.219961 2633.281331 2653.460570 2672.735570 2691.101397 2708.567662 2725.155699 2740.895754 2755.824287 2769.981552 2783.409533 2796.150376 2808.245416 2819.734886 2830.658327 2841.055520 2850.967608 2860.437891 2869.511896 2878.236618 2886.659179 2894.825342 2902.778257 2910.557629 2918.199329 2925.735340 2933.193925 2940.599924 2947.975085 2955.338414 2962.706497 2326.766655 2315.320165 2303.897489 2292.499680 2281.128140 2269.784674 2258.471564 2247.191643 2235.948391 2224.746047 2213.589741 2202.485652 2191.441197 2180.465258 2169.568460 2158.763491 2148.065508 2137.492608 2127.066398 2116.812678 2106.762239 2096.951796 2087.425033 2078.233746 2069.439004 2061.112176 2053.335607 2046.202567 2039.815980 2034.285369 2029.721533 2026.228818 2023.895597 2022.784472 2022.924453 2024.307335 2026.889502 2030.598702 2035.344006 2041.026614 2047.549640 2054.825879 2062.783461 2071.369784 2080.554358 2090.331138 2100.720759 2111.772883 2123.568543 2136.221941 2149.880559 2164.721623 2180.942219 2198.740200 2218.284546 2239.677503 2262.915563 2287.858210 2314.210664 2341.530634 2369.302476 2397.111499 2424.747535 2452.101186 2479.053985 2505.464366 2531.187840 2556.093690 2580.073794 2603.046242 2624.955947 2645.773434 2665.492443 2684.126738 2701.706458 2718.274271 2733.881562 2748.584843 2762.442512 2775.512094 2787.848088 2799.500627 2810.515240 2820.933976 2830.797879 2840.150141 2849.038615 2857.516368 2865.639975 2873.466473 2881.050360 2888.441517 2895.684245 2902.817152 2909.873521 2916.881900 2923.866721 2930.848895 2937.846327 2944.874360 2307.185834 2295.630939 2284.090325 2272.564159 2261.052868 2249.557188 2238.078222 2226.617499 2215.177064 2203.759564 2192.368369 2181.007712 2169.682853 2158.400297 2147.168046 2135.995919 2124.895945 2113.882859 2102.974712 2092.193639 2081.566814 2071.127631 2060.917157 2050.985878 2041.395743 2032.222423 2023.557582 2015.510698 2008.209659 2001.798869 1996.433328 1992.267334 1989.437693 1988.043947 1988.130925 1989.679965 1992.612529 1996.804831 2002.107977 2008.367462 2015.438181 2023.194044 2031.533171 2040.380376 2049.688450 2059.439444 2069.646722 2080.358285 2091.661589 2103.689697 2116.627787 2130.717429 2146.253337 2163.564067 2182.967352 2204.698199 2228.826664 2255.201142 2283.449909 2313.046326 2343.417039 2374.052885 2404.565847 2434.672117 2464.148214 2492.804106 2520.476247 2547.029089 2572.357896 2596.390416 2619.086820 2640.437925 2660.461950 2679.200163 2696.711873 2713.069222 2728.352127 2742.643615 2756.025682 2768.575683 2780.363303 2791.448295 2801.879554 2811.696631 2820.934786 2829.633140 2837.842210 2845.625756 2853.055674 2860.203986 2867.136613 2873.910553 2880.573624 2887.165454 2893.718808 2900.260850 2906.814196 2913.397758 2920.027405 2926.716483 2288.598231 2276.966716 2265.341387 2253.721594 2242.106862 2230.496928 2218.891779 2207.291709 2195.697374 2184.109871 2172.530824 2160.962499 2149.407939 2137.871140 2126.357262 2114.872907 2103.426467 2092.028570 2080.692663 2069.435760 2058.279430 2047.251091 2036.385705 2025.728005 2015.335383 2005.281575 1995.661160 1986.594690 1978.233645 1970.763378 1964.400585 1959.380298 1955.928011 1954.218263 1954.331945 1956.232619 1959.775637 1964.744725 1970.896708 1977.997157 1985.840892 1994.259856 2003.123655 2012.337160 2021.837939 2031.594977 2041.609472 2051.918304 2062.600827 2073.789830 2085.687461 2098.585651 2112.886209 2129.104980 2147.827555 2169.578991 2194.620376 2222.789713 2253.523776 2286.044366 2319.563536 2353.406470 2387.046170 2420.085376 2452.221797 2483.218971 2512.889599 2541.088976 2567.713788 2592.702404 2616.034265 2637.727254 2657.832885 2676.429832 2693.616600 2709.504174 2724.209246 2737.848354 2750.532945 2762.365144 2773.433885 2783.811088 2793.548151 2802.674876 2811.206136 2819.161418 2826.589293 2833.573749 2840.215644 2846.610127 2852.835892 2858.954563 2865.013867 2871.051080 2877.095740 2883.171585 2889.297907 2895.490512 2901.762415 2908.124357 2271.029185 2259.355693 2247.682066 2236.006955 2224.329114 2212.647416 2200.960885 2189.268732 2177.570392 2165.865579 2154.154347 2142.437168 2130.715029 2118.989556 2107.263170 2095.539292 2083.822605 2072.119407 2060.438067 2048.789660 2037.188806 2025.654851 2014.213492 2002.899071 1991.757817 1980.852458 1970.268727 1960.124373 1950.581008 1941.857937 1934.243736 1928.094405 1923.798420 1921.692092 1921.944288 1924.481929 1929.018816 1935.162438 1942.519290 1950.752934 1959.599262 1968.860059 1978.390462 1988.087482 1997.881894 2007.733783 2017.631598 2027.594744 2037.680363 2047.996036 2058.721889 2070.147861 2082.732678 2097.180934 2114.486096 2135.777159 2161.799898 2192.346631 2226.339312 2262.451107 2299.554305 2336.816843 2373.643018 2409.595717 2444.339553 2477.607509 2509.185718 2538.910012 2566.668329 2592.403964 2616.116144 2637.856240 2657.719730 2675.835342 2692.353302 2707.434345 2721.240526 2733.928144 2745.642531 2756.514110 2766.654778 2776.153340 2785.068388 2793.418393 2801.178399 2808.314274 2814.861769 2820.950641 2826.734467 2832.335201 2837.837572 2843.300047 2848.764455 2854.261964 2859.816561 2865.447123 2871.168717 2876.993461 2882.931122 2888.989558 2254.496420 2242.817895 2231.134972 2219.445773 2207.748458 2196.041240 2184.322402 2172.590319 2160.843482 2149.080529 2137.300282 2125.501793 2113.684407 2101.847828 2089.992226 2078.118356 2066.227728 2054.322830 2042.407437 2030.487026 2018.569379 2006.665421 1994.790463 1982.966030 1971.222643 1959.604108 1948.174281 1937.027895 1926.307932 1916.232966 1907.136777 1899.512401 1894.017856 1891.344072 1891.891402 1895.494737 1901.535073 1909.290464 1918.165404 1927.735924 1937.715122 1947.909513 1958.186594 1968.454372 1978.649700 1988.732665 1998.685356 2008.514181 2018.255762 2027.987791 2037.848990 2048.078114 2059.093207 2071.648571 2087.088388 2107.446986 2134.487813 2167.873590 2205.466289 2245.178809 2285.635474 2325.984327 2365.654913 2404.218058 2441.318209 2476.646429 2509.936702 2540.975526 2569.616720 2595.793924 2619.524831 2640.904648 2660.090417 2677.280579 2692.694626 2706.556146 2719.080600 2730.467529 2740.896142 2750.522912 2759.479727 2767.870746 2775.764921 2783.179734 2790.059852 2796.308073 2801.939715 2807.138638 2812.102506 2816.962464 2821.797800 2826.658889 2831.580147 2836.586481 2841.696611 2846.924924 2852.282591 2857.778301 2863.418775 2869.209139 2239.009155 2227.364149 2215.712757 2204.052768 2192.381971 2180.698169 2168.999189 2157.282895 2145.547201 2133.790088 2122.009627 2110.204006 2098.371559 2086.510812 2074.620535 2062.699809 2050.748125 2038.765508 2026.752691 2014.711360 2002.644509 1990.556951 1978.456087 1966.353096 1954.264807 1942.216755 1930.248361 1918.422021 1906.839730 1895.674555 1885.231206 1876.056859 1869.093031 1865.648796 1866.669330 1871.764707 1879.635498 1889.111392 1899.455095 1910.243179 1921.228401 1932.258008 1943.231208 1954.077727 1964.747632 1975.207866 1985.443497 1995.462841 2005.306032 2015.057442 2024.865056 2034.976665 2045.816855 2058.153356 2073.405754 2093.873475 2121.699364 2156.509933 2195.815270 2237.346545 2279.699569 2322.022823 2363.727175 2404.334270 2443.408429 2480.534799 2515.327456 2547.458303 2576.695663 2602.936984 2626.220637 2646.710755 2664.661710 2680.376083 2694.168341 2706.339799 2717.164630 2726.883882 2735.704150 2743.798274 2751.306081 2758.333356 2764.946928 2771.164438 2776.947494 2782.238134 2787.059797 2791.550181 2795.869255 2800.135231 2804.424067 2808.784443 2813.248801 2817.839654 2822.573081 2827.460751 2832.511151 2837.730391 2843.122748 2848.691064 2224.567449 2212.995335 2201.417236 2189.830823 2178.233763 2166.623732 2154.998421 2143.355548 2131.692875 2120.008219 2108.299469 2096.564616 2084.801773 2073.009211 2061.185407 2049.329097 2037.439352 2025.515682 2013.558175 2001.567691 1989.546148 1977.496929 1965.425511 1953.340425 1941.254798 1929.188903 1917.174551 1905.263008 1893.539972 1882.155443 1871.385887 1861.763717 1854.305272 1850.620784 1852.007402 1857.923832 1866.683213 1876.948397 1887.971645 1899.357926 1910.888072 1922.430202 1933.897814 1945.229831 1956.381730 1967.323678 1978.044865 1988.564438 1998.948742 2009.332992 2019.946501 2031.147557 2043.484196 2057.796949 2075.328466 2097.619303 2125.808633 2159.705894 2197.928504 2238.878804 2281.296151 2324.269960 2367.100165 2409.177921 2449.912012 2488.697177 2524.925030 2558.040252 2587.630862 2613.514681 2635.771848 2654.701890 2670.732822 2684.330218 2695.935959 2705.939242 2714.669143 2722.397509 2729.345161 2735.687999 2741.561593 2747.063775 2752.255447 2757.161959 2761.782092 2766.113764 2770.188463 2774.081215 2777.885777 2781.686529 2785.547680 2789.514658 2793.618847 2797.881840 2802.318468 2806.938837 2811.749669 2816.755218 2821.957897 2827.358724 2211.161852 2199.701970 2188.238901 2176.770416 2165.294312 2153.808418 2142.310617 2130.798858 2119.271182 2107.725744 2096.160843 2084.574959 2072.966798 2061.335351 2049.679963 2038.000426 2026.297104 2014.571096 2002.824455 1991.060497 1979.284237 1967.503015 1955.727420 1943.972701 1932.260954 1920.624633 1909.112373 1897.798941 1886.802781 1876.317569 1866.668355 1858.401808 1852.379237 1849.682548 1851.033167 1856.140271 1863.978581 1873.532348 1884.099563 1895.249307 1906.720154 1918.348211 1930.025474 1941.676773 1953.247332 1964.697609 1976.006362 1987.186543 1998.317454 2009.585380 2021.313098 2033.969536 2048.172888 2064.692381 2084.410292 2108.167713 2136.473630 2169.252428 2205.877686 2245.453288 2287.075279 2329.938223 2373.323973 2416.541705 2458.858560 2499.443437 2537.355048 2571.624738 2601.466590 2626.535482 2647.034765 2663.572251 2676.900929 2687.727630 2696.638102 2704.094141 2710.455064 2716.000177 2720.945890 2725.457677 2729.658454 2733.634816 2737.442518 2741.113064 2744.663490 2748.109556 2751.477923 2754.810233 2758.157425 2761.570288 2765.092678 2768.759087 2772.595069 2776.618784 2780.842677 2785.274895 2789.920391 2794.781741 2799.859756 2805.153925 2198.773375 2187.464176 2176.156880 2164.849565 2153.540383 2142.227582 2130.909531 2119.584752 2108.251959 2096.910096 2085.558395 2074.196443 2062.824257 2051.442390 2040.052060 2028.655313 2017.255236 2005.856248 1994.464469 1983.088243 1971.738843 1960.431469 1949.186671 1938.032413 1927.007125 1916.164289 1905.579404 1895.360618 1885.664783 1876.720534 1868.857285 1862.528458 1858.292526 1856.692202 1858.026846 1862.179853 1868.687185 1876.968288 1886.505867 1896.906088 1907.889008 1919.259964 1930.883342 1942.663078 1954.528273 1966.421560 1978.291109 1990.098679 2001.872099 2013.802637 2026.296593 2039.917834 2055.301175 2073.097397 2093.920895 2118.265794 2146.401508 2178.302049 2213.659772 2251.974892 2292.660949 2335.113329 2378.724341 2422.850610 2466.739582 2509.419121 2549.577776 2585.564724 2615.786618 2639.528075 2657.372829 2670.640565 2680.621399 2688.278794 2694.280255 2699.096306 2703.072788 2706.470815 2709.487977 2712.271171 2714.926048 2717.525016 2720.114627 2722.722963 2725.367309 2728.061624 2730.822355 2733.671000 2736.633199 2739.735796 2743.003800 2746.458421 2750.116329 2753.989782 2758.087173 2762.413716 2766.972100 2771.763051 2776.785796 2782.038423 2187.373794 2176.252030 2165.139349 2154.034304 2142.935594 2131.842098 2120.752914 2109.667409 2098.585275 2087.506598 2076.431942 2065.362448 2054.299965 2043.247197 2032.207907 2021.187157 2010.191633 1999.230047 1988.313677 1977.457076 1966.679011 1956.003740 1945.462735 1935.097048 1924.960554 1915.124377 1905.682860 1896.761322 1888.525387 1881.190353 1875.026167 1870.348950 1867.486465 1866.711198 1868.159300 1871.781277 1877.360614 1884.585930 1893.128759 1902.693670 1913.037627 1923.970244 1935.346134 1947.055431 1959.013740 1971.148701 1983.377349 1995.579841 2007.645372 2019.703560 2032.274137 2046.047935 2061.678158 2079.734444 2100.687638 2124.876687 2152.471991 2183.458581 2217.651663 2254.738763 2294.329355 2335.991801 2379.264309 2423.631288 2468.451556 2512.807146 2555.224219 2593.329072 2624.158882 2646.237332 2661.020416 2670.990711 2677.927869 2682.853838 2686.388007 2688.964594 2690.915795 2692.497021 2693.897943 2695.253163 2696.653637 2698.157434 2699.799070 2701.597359 2703.561974 2705.698696 2708.013133 2710.512695 2713.206913 2716.106633 2719.222763 2722.565144 2726.141809 2729.958665 2734.019488 2738.326107 2742.878677 2747.675973 2752.715666 2757.994563 2176.926267 2166.026276 2155.144349 2144.279640 2133.431529 2122.599677 2111.784073 2100.985108 2090.203649 2079.441134 2068.699688 2057.982255 2047.292766 2036.636347 2026.019567 2015.450755 2004.940392 1994.501612 1984.150824 1973.908524 1963.800313 1953.858219 1944.122371 1934.643136 1925.483785 1916.723728 1908.462244 1900.822342 1893.953878 1888.034229 1883.263759 1879.852707 1877.997370 1877.847928 1879.477241 1882.863931 1887.898327 1894.407929 1902.190064 1911.039670 1920.766610 1931.203007 1942.203757 1953.643298 1965.410024 1977.396666 1989.480762 2001.497436 2013.284739 2024.949349 2037.044528 2050.302687 2065.395165 2082.883881 2103.204603 2126.639686 2153.301998 2183.145960 2216.000959 2251.611397 2289.669606 2329.833851 2371.726640 2414.906329 2458.795463 2502.527752 2544.647422 2582.686319 2613.390004 2635.054545 2649.247365 2658.533991 2664.613040 2668.441490 2670.686372 2671.900442 2672.527505 2672.891272 2673.209564 2673.620583 2674.207562 2675.017440 2676.073962 2677.386715 2678.957400 2680.784153 2682.864365 2685.196266 2687.779502 2690.615014 2693.704521 2697.049906 2700.652678 2704.513606 2708.632519 2713.008260 2717.638726 2722.520974 2727.651344 2733.025602 2167.386205 2156.739333 2146.120961 2135.530914 2124.969330 2114.436725 2103.934057 2093.462816 2083.025116 2072.623813 2062.262640 2051.946375 2041.681030 2031.474095 2021.334824 2011.274579 2001.307265 1991.449842 1981.722970 1972.151787 1962.766855 1953.605314 1944.712237 1936.142220 1927.961147 1920.248025 1913.096650 1906.616655 1900.933236 1896.184578 1892.515869 1890.069168 1888.969420 1889.308788 1891.133181 1894.435319 1899.156707 1905.197537 1912.430673 1920.715187 1929.906136 1939.859239 1950.430560 1961.472298 1972.826418 1984.319159 1995.762831 2006.982006 2017.899176 2028.678750 2039.790793 2051.900088 2065.715756 2081.890948 2100.935606 2123.135103 2148.527391 2176.961435 2208.186191 2241.913126 2277.839240 2315.642242 2354.956987 2395.331908 2436.154943 2476.534081 2515.139795 2550.138866 2579.599754 2602.523913 2619.374439 2631.255001 2639.072069 2643.618944 2645.847853 2646.699036 2646.869595 2646.796746 2646.735786 2646.831197 2647.162333 2647.770350 2648.673980 2649.879027 2651.384232 2653.184983 2655.275602 2657.650653 2660.305554 2663.236692 2666.441252 2669.916899 2673.661445 2677.672570 2681.947615 2686.483470 2691.276531 2696.322712 2701.617487 2707.155962 2158.702347 2148.336526 2138.010718 2127.725437 2117.481589 2107.280547 2097.124231 2087.015204 2076.956783 2066.953168 2057.009593 2047.132508 2037.329785 2027.610969 2017.987571 2008.473420 1999.085069 1989.842290 1980.768642 1971.892142 1963.246036 1954.869668 1946.809425 1939.119735 1931.863999 1925.115353 1918.956999 1913.481819 1908.790850 1904.990223 1902.186243 1900.478644 1899.952581 1900.670567 1902.666005 1905.939843 1910.461116 1916.170950 1922.988563 1930.817243 1939.548395 1949.062116 1959.223207 1969.872198 1980.812746 1991.802153 2002.563275 2012.847348 2022.557259 2031.868143 2041.246841 2051.371345 2063.041607 2077.101117 2094.270798 2114.883743 2138.794539 2165.598754 2194.875798 2226.270131 2259.471815 2294.172498 2330.020702 2366.575929 2403.258270 2439.299493 2473.725899 2505.439151 2533.453153 2557.188699 2576.521658 2591.443349 2601.820179 2607.985440 2611.169158 2612.692795 2613.423152 2613.846243 2614.230469 2614.726596 2615.420095 2616.358832 2617.568444 2619.061308 2620.842001 2622.910704 2625.265336 2627.902838 2630.819898 2634.013284 2637.479920 2641.216834 2645.221031 2649.489362 2654.018418 2658.804460 2663.843387 2669.130743 2674.661744 2680.431327 2150.817943 2140.757437 2130.749155 2120.794265 2110.894393 2101.051706 2091.269001 2081.549804 2071.898493 2062.320429 2052.822114 2043.411373 2034.097559 2024.891796 2015.807253 2006.859464 1998.066692 1989.450342 1981.035428 1972.851087 1964.931138 1957.314658 1950.046554 1943.178070 1936.767140 1930.878485 1925.583291 1920.958293 1917.084081 1914.042496 1911.913086 1910.768802 1910.671320 1911.666647 1913.781701 1917.022481 1921.374088 1926.802371 1933.256533 1940.671683 1948.970151 1958.060184 1967.830315 1978.136920 1988.781767 1999.478465 2009.824584 2019.352855 2027.769699 2035.247758 2042.395091 2050.001613 2058.949571 2070.292315 2085.126450 2103.901534 2126.092547 2150.898807 2177.741290 2206.251789 2236.157203 2267.197825 2299.076510 2331.423810 2363.774119 2395.558055 2426.124264 2454.802900 2481.000034 2504.266482 2524.259025 2540.595207 2552.878751 2561.234499 2566.597304 2570.090904 2572.533385 2574.427513 2576.074848 2577.659868 2579.298204 2581.063655 2583.003796 2585.149390 2587.520264 2590.129073 2592.983763 2596.089165 2599.448027 2603.061654 2606.930297 2611.053372 2615.429579 2620.056974 2624.933016 2630.054610 2635.418158 2641.019619 2646.854570 2652.918279 2143.671982 2133.937300 2124.267389 2114.663993 2105.129363 2095.666343 2086.278460 2076.970031 2067.746280 2058.613469 2049.579055 2040.651858 2031.842252 2023.162386 2014.626419 2006.250797 1998.054541 1990.059575 1982.291066 1974.777784 1967.552454 1960.652097 1954.118300 1947.997395 1942.340467 1937.203122 1932.644927 1928.728434 1925.517723 1923.076426 1921.465305 1920.739501 1920.945720 1922.119669 1924.284071 1927.447521 1931.604272 1936.734851 1942.807164 1949.777586 1957.591314 1966.180996 1975.461984 1985.320938 1995.590713 2005.997332 2016.065471 2025.063630 2032.366245 2038.191467 2043.453309 2049.091100 2055.976580 2065.127583 2077.650385 2093.977317 2113.482972 2135.292139 2158.812507 2183.695240 2209.703787 2236.629645 2264.244586 2292.272485 2320.374519 2348.148319 2375.143455 2400.891752 2424.941676 2446.877840 2466.315408 2482.902395 2496.413830 2506.939696 2514.943696 2521.067089 2525.900042 2529.891821 2533.359372 2536.521992 2539.532131 2542.497140 2545.493696 2548.577285 2551.788483 2555.157201 2558.705575 2562.449984 2566.402457 2570.571666 2574.963648 2579.582314 2584.429840 2589.506962 2594.813208 2600.347100 2606.106321 2612.087865 2618.288173 2624.703250 2137.200394 2127.808342 2118.493625 2109.258449 2100.105558 2091.038314 2082.060792 2073.177878 2064.395383 2055.720173 2047.160302 2038.725174 2030.425705 2022.274508 2014.286093 2006.477076 1998.866402 1991.475570 1984.328865 1977.453571 1970.880163 1964.642453 1958.777668 1953.326420 1948.332542 1943.842731 1939.905972 1936.572695 1933.893649 1931.918499 1930.694204 1930.263240 1930.661833 1931.918332 1934.051886 1937.071530 1940.975716 1945.752218 1951.378204 1957.820178 1965.033233 1972.958788 1981.519219 1990.606149 2000.055690 2009.598600 2018.779443 2026.931228 2033.514459 2038.730195 2043.403724 2048.413675 2054.544238 2062.556221 2073.100499 2086.418970 2102.233037 2120.033901 2139.375251 2159.947253 2181.539353 2203.988520 2227.138255 2250.808886 2274.777564 2298.768512 2322.454813 2345.471147 2367.433695 2387.962511 2406.706706 2423.381770 2437.826337 2450.057373 2460.275644 2468.803496 2475.997250 2482.184167 2487.636535 2492.570093 2497.152318 2501.512538 2505.750796 2509.944820 2514.155249 2518.429520 2522.804747 2527.309879 2531.967332 2536.794255 2541.803505 2547.004438 2552.403534 2558.004920 2563.810796 2569.821794 2576.037289 2582.455647 2589.074452 2595.890687 2131.337152 2122.301014 2113.354520 2104.500206 2095.741149 2087.081049 2078.524314 2070.076158 2061.742704 2053.531102 2045.449647 2037.507919 2029.716915 2022.089206 2014.639083 2007.382712 2000.338285 1993.526163 1986.969003 1980.691857 1974.722234 1969.090113 1963.827887 1958.970216 1954.553785 1950.616936 1947.199162 1944.340461 1942.080541 1940.457884 1939.508704 1939.265814 1939.757463 1941.006208 1943.027843 1945.830459 1949.413595 1953.767449 1958.871966 1964.695554 1971.192949 1978.301468 1985.934397 1993.969598 2002.231188 2010.465550 2018.329519 2025.447194 2031.594109 2036.896807 2041.807382 2046.905385 2052.757817 2059.860911 2068.576748 2079.056048 2091.225488 2104.874135 2119.767754 2135.718072 2152.599523 2170.336233 2188.876480 2208.162187 2228.097751 2248.523946 2269.204273 2289.829304 2310.039089 2329.458212 2347.736370 2364.588852 2379.831420 2393.400925 2405.352581 2415.833337 2425.042827 2433.197002 2440.503185 2447.147208 2453.289134 2459.063712 2464.582901 2469.938987 2475.207588 2480.450329 2485.717107 2491.048002 2496.474879 2502.022733 2507.710836 2513.553709 2519.561950 2525.742949 2532.101488 2538.640258 2545.360287 2552.261309 2559.342056 2566.600515 2126.015255 2117.345059 2108.776357 2100.311863 2091.954816 2083.709056 2075.579105 2067.570255 2059.688662 2051.941447 2044.336804 2036.884109 2029.594037 2022.478672 2015.551619 2008.828108 2002.325082 1996.061269 1990.057228 1984.335353 1978.919840 1973.836599 1969.113105 1964.778178 1960.861705 1957.394290 1954.406851 1951.930170 1949.994404 1948.628562 1947.859944 1947.713504 1948.211137 1949.370834 1951.205711 1953.722902 1956.922312 1960.795196 1965.322501 1970.472777 1976.199401 1982.436764 1989.095092 1996.054021 2003.156557 2010.208753 2016.996352 2023.331482 2029.124909 2034.442857 2039.501685 2044.606528 2050.079476 2056.203345 2063.180651 2071.109581 2079.988228 2089.749646 2100.311766 2111.621017 2123.678256 2136.545080 2150.330693 2165.158287 2181.112528 2198.179852 2216.205135 2234.888049 2253.823490 2272.567488 2290.702667 2307.886578 2323.878585 2338.547368 2351.862766 2363.876523 2374.697617 2384.467938 2393.342371 2401.474783 2409.009507 2416.076959 2422.791989 2429.253847 2435.547009 2441.742426 2447.898925 2454.064640 2460.278395 2466.571005 2472.966485 2479.483144 2486.134563 2492.930464 2499.877457 2506.979685 2514.239363 2521.657223 2529.232888 2536.965158 2121.167531 2112.870388 2104.685985 2096.617057 2088.666827 2080.839079 2073.138225 2065.569389 2058.138490 2050.852329 2043.718678 2036.746376 2029.945419 2023.327039 2016.903790 2010.689606 2004.699842 1998.951295 1993.462183 1988.252083 1983.341820 1978.753299 1974.509278 1970.633083 1967.148289 1964.078367 1961.446355 1959.274571 1957.584409 1956.396234 1955.729331 1955.601826 1956.030449 1957.030000 1958.612431 1960.785525 1963.551237 1966.903779 1970.827522 1975.294695 1980.262887 1985.672359 1991.443450 1997.474881 2003.644703 2009.816738 2015.855639 2021.651030 2027.144622 2032.347739 2037.338576 2042.239853 2047.187397 2052.300764 2057.662593 2063.310567 2069.244239 2075.445871 2081.910549 2088.679283 2095.869837 2103.700076 2112.493911 2122.650498 2134.554388 2148.431589 2164.218297 2181.537884 2199.807833 2218.396870 2236.744775 2254.418557 2271.122358 2286.684431 2301.035620 2314.185930 2326.202078 2337.187587 2347.266386 2356.570255 2365.229904 2373.369114 2381.101229 2388.527353 2395.735717 2402.801818 2409.789076 2416.749800 2423.726334 2430.752293 2437.853799 2445.050677 2452.357558 2459.784880 2467.339750 2475.026689 2482.848247 2490.805506 2498.898478 2507.126422 2116.727281 2108.807758 2101.011535 2093.341212 2085.799824 2078.390899 2071.118529 2063.987435 2057.003041 2050.171555 2043.500042 2036.996502 2030.669945 2024.530456 2018.589246 2012.858693 2007.352353 2002.084938 1997.072260 1992.331121 1987.879140 1983.734525 1979.915765 1976.441268 1973.328942 1970.595781 1968.257502 1966.328322 1964.820991 1963.747131 1963.117886 1962.944690 1963.239852 1964.016552 1965.288002 1967.065756 1969.357435 1972.164232 1975.478478 1979.281433 1983.541380 1988.212097 1993.231990 1998.524402 2003.999914 2009.561491 2015.112805 2020.568656 2025.864618 2030.962025 2035.845660 2040.514669 2044.970222 2049.204519 2053.194994 2056.905970 2060.298377 2063.346825 2066.062907 2068.524700 2070.914606 2073.568547 2077.031864 2082.086212 2089.649002 2100.435956 2114.522005 2131.243814 2149.567817 2168.510385 2187.325364 2205.512467 2222.766089 2238.922501 2253.919194 2267.765280 2280.519521 2292.273473 2303.138329 2313.234711 2322.684928 2331.607319 2340.112323 2348.299965 2356.258453 2364.063674 2371.779371 2379.457830 2387.140918 2394.861334 2402.643949 2410.507135 2418.464020 2426.523605 2434.691731 2442.971881 2451.365835 2459.874172 2468.496669 2477.232587 2112.628725 2105.089232 2097.682892 2090.412022 2083.279299 2076.287818 2069.441140 2062.743362 2056.199179 2049.813947 2043.593761 2037.545510 2031.676949 2025.996750 2020.514548 2015.240962 2010.187602 2005.367030 2000.792691 1996.478775 1992.440022 1988.691442 1985.247940 1982.123846 1979.332353 1976.884895 1974.790565 1973.055703 1971.683923 1970.676848 1970.035742 1969.763871 1969.868844 1970.363845 1971.266863 1972.598011 1974.375795 1976.613459 1979.316083 1982.478574 1986.084430 1990.105095 1994.499859 1999.216407 2004.192165 2009.356507 2014.633591 2019.945116 2025.211942 2030.353579 2035.285313 2039.913985 2044.134540 2047.829977 2050.876655 2053.155519 2054.567949 2055.053905 2054.610854 2053.315516 2051.356879 2049.098172 2047.195071 2046.781168 2049.569312 2057.295490 2070.307624 2087.167936 2105.977097 2125.336924 2144.412515 2162.740421 2180.077020 2196.310916 2211.414582 2225.416325 2238.382469 2250.404777 2261.590832 2272.056312 2281.918706 2291.292268 2300.284099 2308.991309 2317.499195 2325.880369 2334.194725 2342.490088 2350.803375 2359.162067 2367.585810 2376.088000 2384.677233 2393.358565 2402.134546 2411.006046 2419.972867 2429.034205 2438.188961 2447.435957 2108.807278 2101.648442 2094.631943 2087.759679 2081.033816 2074.456838 2068.031592 2061.761343 2055.649828 2049.701321 2043.920689 2038.313458 2032.885867 2027.644930 2022.598471 2017.755161 2013.124524 2008.716911 2004.543442 2000.615885 1996.946467 1993.547588 1990.431417 1987.609339 1985.091215 1982.884454 1980.992925 1979.415866 1978.147206 1977.176040 1976.489294 1976.077083 1975.939482 1976.091199 1976.560791 1977.384656 1978.599332 1980.235449 1982.314430 1984.847301 1987.834637 1991.266923 1995.124968 1999.380189 2003.994659 2008.920698 2014.099761 2019.460243 2024.913938 2030.351241 2035.635817 2040.600397 2045.046303 2048.749863 2051.478296 2053.015242 2053.191902 2051.916072 2049.191919 2045.130623 2039.964359 2034.091478 2028.202623 2023.559980 2022.364784 2027.269402 2038.901371 2055.045394 2073.183451 2091.773534 2110.020043 2127.523523 2144.089223 2159.636105 2174.152579 2187.673060 2200.263903 2212.013689 2223.025591 2233.410868 2243.283092 2252.753038 2261.924330 2270.890003 2279.730132 2288.510645 2297.283265 2306.086442 2314.947000 2323.882180 2332.901791 2342.010227 2351.208206 2360.494169 2369.865333 2379.318439 2388.850241 2398.457812 2408.138697 2417.890983 2105.199644 2098.420661 2091.792620 2085.316879 2078.994958 2072.828578 2066.819697 2060.970557 2055.283732 2049.762181 2044.409306 2039.229009 2034.225757 2029.404635 2024.771406 2020.332551 2016.095307 2012.067670 2008.258377 2004.676832 2001.332977 1998.237064 1995.399302 1992.829320 1990.535355 1988.523078 1986.793895 1985.342654 1984.154937 1983.205018 1982.457414 1981.876516 1981.445159 1981.181120 1981.135766 1981.375955 1981.965520 1982.956083 1984.385597 1986.280148 1988.656279 1991.522832 1994.882016 1998.729616 2003.054126 2007.834531 2013.036354 2018.605660 2024.460950 2030.483285 2036.505676 2042.303737 2047.591237 2052.026480 2055.237259 2056.869975 2056.657872 2054.486736 2050.429925 2044.743677 2037.847388 2030.334636 2023.059694 2017.311675 2014.917564 2017.693566 2026.042923 2038.565295 2053.384736 2069.115179 2084.924798 2100.345750 2115.123807 2129.132103 2142.324372 2154.708776 2166.331990 2177.268337 2187.611314 2197.466235 2206.943378 2216.151531 2225.192101 2234.154209 2243.111218 2252.119049 2261.216347 2270.426219 2279.759040 2289.215699 2298.790751 2308.475121 2318.258193 2328.129274 2338.078510 2348.097396 2358.178970 2368.317828 2378.510015 2388.752855 2101.743764 2095.342692 2089.100731 2083.018599 2077.097057 2071.336929 2065.739137 2060.304727 2055.034918 2049.931140 2044.995091 2040.228794 2035.634658 2031.215548 2026.974849 2022.916540 2019.045253 2015.366328 2011.885844 2008.610627 2005.548209 2002.706715 2000.094647 1997.720501 1995.592113 1993.715558 1992.093280 1990.720908 1989.581937 1988.639766 1987.829982 1987.067211 1986.289967 1985.521425 1984.864968 1984.441182 1984.346905 1984.650748 1985.401170 1986.634281 1988.379079 1990.660638 1993.501878 1996.924069 2000.945904 2005.580565 2010.830100 2016.676451 2023.068854 2029.907938 2037.027337 2044.174005 2050.989682 2057.000802 2061.635362 2064.297551 2064.517946 2062.129805 2057.354093 2050.733664 2042.999437 2034.987202 2027.638494 2022.025831 2019.271859 2020.234536 2025.086570 2033.230726 2043.675594 2055.460243 2067.844431 2080.318840 2092.555653 2104.358118 2115.623211 2126.316216 2136.453342 2146.089069 2155.305979 2164.205623 2172.899541 2181.500161 2190.11184