# vtk DataFile Version 3.0
vtk output
ASCII
DATASET STRUCTURED_POINTS
DIMENSIONS 100 100 1
SPACING 0.020121 0.019914 0
ORIGIN -0.993795 -0.981138 0
POINT_DATA 10000
SCALARS RTData float
LOOKUP_TABLE default
-0.216241 -0.214876 -0.213098 -0.210908 -0.208310 -0.205311 -0.201920 -0.198148 -0.194009 -0.189518 -0.184692 -0.179549 -0.174111 -0.168398 -0.162432 -0.156238 -0.149838 -0.143258 -0.136523 -0.129657 -0.122685 -0.115634 -0.108528 -0.101394 -0.094255 -0.087137 -0.080065 -0.073065 -0.066160 -0.059376 -0.052735 -0.046262 -0.039981 -0.033914 -0.028082 -0.022508 -0.017212 -0.012214 -0.007532 -0.003183 0.000816 0.004451 0.007709 0.010578 0.013048 0.015110 0.016757 0.017985 0.018788 0.019165 0.019114 0.018637 0.017734 0.016410 0.014668 0.012515 0.009958 0.007006 0.003668 -0.000045 -0.004120 -0.008543 -0.013300 -0.018373 -0.023746 -0.029399 -0.035312 -0.041464 -0.047833 -0.054394 -0.061124 -0.067996 -0.074986 -0.082067 -0.089211 -0.096391 -0.103579 -0.110748 -0.117871 -0.124920 -0.131868 -0.138690 -0.145359 -0.151852 -0.158145 -0.164216 -0.170044 -0.175610 -0.180896 -0.185886 -0.190567 -0.194926 -0.198955 -0.202644 -0.205988 -0.208984 -0.211630 -0.213926 -0.215876 -0.217484 -0.214907 -0.213084 -0.210834 -0.208160 -0.205068 -0.201565 -0.197660 -0.193367 -0.188699 -0.183673 -0.178306 -0.172619 -0.166632 -0.160368 -0.153851 -0.147104 -0.140153 -0.133024 -0.125741 -0.118332 -0.110823 -0.103240 -0.095610 -0.087959 -0.080314 -0.072700 -0.065143 -0.057671 -0.050307 -0.043079 -0.036009 -0.029124 -0.022448 -0.016003 -0.009813 -0.003900 0.001715 0.007012 0.011972 0.016576 0.020809 0.024655 0.028101 0.031135 0.033747 0.035927 0.037668 0.038966 0.039815 0.040213 0.040160 0.039656 0.038703 0.037304 0.035464 0.033190 0.030487 0.027367 0.023838 0.019912 0.015602 0.010923 0.005889 0.000518 -0.005172 -0.011162 -0.017430 -0.023954 -0.030713 -0.037680 -0.044832 -0.052141 -0.059582 -0.067127 -0.074748 -0.082417 -0.090105 -0.097783 -0.105424 -0.112999 -0.120481 -0.127841 -0.135054 -0.142094 -0.148936 -0.155556 -0.161934 -0.168047 -0.173878 -0.179409 -0.184625 -0.189513 -0.194061 -0.198260 -0.202104 -0.205588 -0.208710 -0.211469 -0.213866 -0.215906 -0.213177 -0.210882 -0.208147 -0.204978 -0.201379 -0.197360 -0.192931 -0.188105 -0.182897 -0.177325 -0.171407 -0.165165 -0.158620 -0.151797 -0.144718 -0.137411 -0.129900 -0.122213 -0.114376 -0.106416 -0.098362 -0.090240 -0.082079 -0.073905 -0.065746 -0.057630 -0.049583 -0.041633 -0.033805 -0.026127 -0.018624 -0.011321 -0.004245 0.002582 0.009135 0.015391 0.021329 0.026928 0.032169 0.037032 0.041501 0.045561 0.049198 0.052399 0.055154 0.057453 0.059290 0.060659 0.061554 0.061975 0.061919 0.061388 0.060384 0.058909 0.056969 0.054570 0.051721 0.048429 0.044706 0.040563 0.036015 0.031074 0.025759 0.020085 0.014073 0.007742 0.001113 -0.005791 -0.012945 -0.020325 -0.027906 -0.035659 -0.043558 -0.051575 -0.059681 -0.067846 -0.076041 -0.084238 -0.092406 -0.100516 -0.108539 -0.116448 -0.124215 -0.131811 -0.139213 -0.146395 -0.153333 -0.160007 -0.166395 -0.172479 -0.178242 -0.183671 -0.188752 -0.193475 -0.197833 -0.201819 -0.205430 -0.208665 -0.211524 -0.214011 -0.211055 -0.208275 -0.205045 -0.201368 -0.197252 -0.192705 -0.187740 -0.182371 -0.176613 -0.170485 -0.164008 -0.157202 -0.150090 -0.142698 -0.135051 -0.127174 -0.119096 -0.110844 -0.102445 -0.093928 -0.085322 -0.076655 -0.067956 -0.059254 -0.050576 -0.041952 -0.033409 -0.024975 -0.016678 -0.008546 -0.000604 0.007120 0.014601 0.021813 0.028733 0.035336 0.041601 0.047505 0.053029 0.058154 0.062863 0.067139 0.070969 0.074339 0.077239 0.079660 0.081593 0.083033 0.083976 0.084419 0.084361 0.083802 0.082745 0.081193 0.079152 0.076628 0.073628 0.070163 0.066243 0.061880 0.057089 0.051884 0.046282 0.040302 0.033962 0.027284 0.020289 0.013002 0.005446 -0.002353 -0.010368 -0.018572 -0.026936 -0.035431 -0.044028 -0.052697 -0.061407 -0.070129 -0.078831 -0.087485 -0.096059 -0.104525 -0.112854 -0.121017 -0.128988 -0.136741 -0.144251 -0.151494 -0.158451 -0.165099 -0.171422 -0.177404 -0.183030 -0.188290 -0.193174 -0.197675 -0.201789 -0.205513 -0.208846 -0.211793 -0.208547 -0.205272 -0.201534 -0.197339 -0.192695 -0.187611 -0.182100 -0.176178 -0.169861 -0.163169 -0.156123 -0.148744 -0.141058 -0.133090 -0.124866 -0.116414 -0.107761 -0.098937 -0.089970 -0.080890 -0.071726 -0.062508 -0.053266 -0.044029 -0.034828 -0.025690 -0.016647 -0.007725 0.001045 0.009636 0.018020 0.026170 0.034059 0.041661 0.048950 0.055904 0.062498 0.068711 0.074522 0.079911 0.084861 0.089356 0.093380 0.096922 0.099968 0.102511 0.104542 0.106055 0.107045 0.107511 0.107450 0.106863 0.105753 0.104124 0.101980 0.099328 0.096176 0.092535 0.088415 0.083830 0.078793 0.073320 0.067429 0.061137 0.054466 0.047437 0.040072 0.032395 0.024432 0.016210 0.007755 -0.000904 -0.009739 -0.018718 -0.027812 -0.036991 -0.046223 -0.055476 -0.064720 -0.073924 -0.083057 -0.092087 -0.100986 -0.109725 -0.118274 -0.126606 -0.134697 -0.142521 -0.150055 -0.157278 -0.164171 -0.170717 -0.176900 -0.182708 -0.188130 -0.193158 -0.197786 -0.202011 -0.205832 -0.209251 -0.205660 -0.201879 -0.197625 -0.192902 -0.187720 -0.182090 -0.176025 -0.169541 -0.162657 -0.155393 -0.147770 -0.139812 -0.131544 -0.122993 -0.114186 -0.105151 -0.095918 -0.086516 -0.076975 -0.067326 -0.057599 -0.047825 -0.038036 -0.028260 -0.018530 -0.008875 0.000674 0.010087 0.019335 0.028388 0.037218 0.045796 0.054096 0.062090 0.069753 0.077060 0.083986 0.090510 0.096610 0.102266 0.107459 0.112175 0.116396 0.120110 0.123305 0.125971 0.128100 0.129686 0.130725 0.131213 0.131150 0.130535 0.129372 0.127663 0.125415 0.122634 0.119329 0.115510 0.111188 0.106377 0.101092 0.095348 0.089164 0.082558 0.075552 0.068168 0.060428 0.052359 0.043985 0.035334 0.026435 0.017315 0.008006 -0.001463 -0.011060 -0.020754 -0.030512 -0.040304 -0.050095 -0.059856 -0.069553 -0.079155 -0.088631 -0.097951 -0.107086 -0.116006 -0.124686 -0.133098 -0.141219 -0.149026 -0.156499 -0.163618 -0.170368 -0.176734 -0.182705 -0.188270 -0.193424 -0.198162 -0.202482 -0.206384 -0.202404 -0.198110 -0.193329 -0.188070 -0.182342 -0.176157 -0.169530 -0.162477 -0.155019 -0.147175 -0.138968 -0.130424 -0.121568 -0.112428 -0.103032 -0.093410 -0.083591 -0.073606 -0.063487 -0.053264 -0.042970 -0.032636 -0.022294 -0.011976 -0.001713 0.008462 0.018520 0.028428 0.038156 0.047675 0.056954 0.065964 0.074678 0.083067 0.091105 0.098767 0.106028 0.112865 0.119255 0.125180 0.130619 0.135556 0.139976 0.143863 0.147208 0.149999 0.152227 0.153888 0.154975 0.155486 0.155420 0.154777 0.153560 0.151772 0.149419 0.146508 0.143048 0.139049 0.134523 0.129485 0.123949 0.117931 0.111451 0.104529 0.097185 0.089442 0.081325 0.072858 0.064070 0.054988 0.045640 0.036056 0.026267 0.016305 0.006201 -0.004012 -0.014303 -0.024636 -0.034981 -0.045303 -0.055570 -0.065749 -0.075808 -0.085716 -0.095443 -0.104958 -0.114233 -0.123241 -0.131957 -0.140355 -0.148416 -0.156117 -0.163443 -0.170376 -0.176905 -0.183018 -0.188708 -0.193969 -0.198798 -0.203194 -0.198792 -0.193975 -0.188661 -0.182858 -0.176576 -0.169830 -0.162634 -0.155006 -0.146966 -0.138536 -0.129740 -0.120604 -0.111155 -0.101421 -0.091431 -0.081216 -0.070807 -0.060235 -0.049533 -0.038733 -0.027867 -0.016970 -0.006072 0.004792 0.015590 0.026289 0.036858 0.047263 0.057475 0.067461 0.077191 0.086636 0.095765 0.104552 0.112967 0.120986 0.128583 0.135735 0.142418 0.148613 0.154299 0.159460 0.164078 0.168141 0.171636 0.174552 0.176881 0.178616 0.179752 0.180287 0.180218 0.179547 0.178275 0.176407 0.173948 0.170906 0.167290 0.163110 0.158379 0.153112 0.147323 0.141030 0.134252 0.127010 0.119325 0.111222 0.102724 0.093859 0.084653 0.075135 0.065336 0.055285 0.045013 0.034554 0.023940 0.013203 0.002378 -0.008503 -0.019404 -0.030292 -0.041133 -0.051893 -0.062541 -0.073042 -0.083366 -0.093481 -0.103357 -0.112967 -0.122283 -0.131281 -0.139936 -0.148227 -0.156136 -0.163645 -0.170740 -0.177409 -0.183643 -0.189436 -0.194784 -0.199685 -0.194837 -0.189490 -0.183635 -0.177282 -0.170441 -0.163127 -0.155356 -0.147146 -0.138520 -0.129499 -0.120110 -0.110377 -0.100330 -0.089998 -0.079410 -0.068599 -0.057596 -0.046433 -0.035145 -0.023764 -0.012325 -0.000861 0.010595 0.022007 0.033343 0.044568 0.055650 0.066556 0.077253 0.087708 0.097892 0.107772 0.117319 0.126504 0.135298 0.143676 0.151611 0.159078 0.166055 0.172521 0.178456 0.183840 0.188659 0.192898 0.196544 0.199586 0.202016 0.203826 0.205012 0.205569 0.205498 0.204798 0.203472 0.201523 0.198958 0.195785 0.192011 0.187650 0.182713 0.177215 0.171172 0.164602 0.157525 0.149961 0.141934 0.133468 0.124588 0.115321 0.105695 0.095741 0.085487 0.074966 0.064209 0.053251 0.042123 0.030860 0.019496 0.008067 -0.003394 -0.014851 -0.026270 -0.037616 -0.048855 -0.059953 -0.070878 -0.081597 -0.092080 -0.102296 -0.112218 -0.121820 -0.131075 -0.139962 -0.148460 -0.156551 -0.164220 -0.171453 -0.178240 -0.184573 -0.190447 -0.195860 -0.190552 -0.184671 -0.178270 -0.171361 -0.163955 -0.156068 -0.147717 -0.138922 -0.129705 -0.120090 -0.110102 -0.099769 -0.089121 -0.078187 -0.066998 -0.055588 -0.043988 -0.032232 -0.020356 -0.008392 0.003624 0.015657 0.027672 0.039634 0.051510 0.063263 0.074860 0.086266 0.097449 0.108376 0.119013 0.129330 0.139296 0.148880 0.158055 0.166792 0.175065 0.182850 0.190122 0.196859 0.203042 0.208652 0.213672 0.218088 0.221885 0.225054 0.227585 0.229470 0.230705 0.231287 0.231213 0.230484 0.229103 0.227074 0.224402 0.221097 0.217166 0.212622 0.207478 0.201748 0.195450 0.188602 0.181225 0.173339 0.164968 0.156138 0.146874 0.137204 0.127157 0.116763 0.106054 0.095061 0.083818 0.072358 0.060715 0.048924 0.037020 0.025039 0.013016 0.000988 -0.011011 -0.022944 -0.034778 -0.046476 -0.058005 -0.069331 -0.080424 -0.091251 -0.101783 -0.111992 -0.121852 -0.131340 -0.140432 -0.149111 -0.157359 -0.165162 -0.172507 -0.179387 -0.185796 -0.191729 -0.185956 -0.179534 -0.172583 -0.165114 -0.157140 -0.148676 -0.139742 -0.130357 -0.120546 -0.110333 -0.099744 -0.088809 -0.077556 -0.066018 -0.054226 -0.042214 -0.030015 -0.017665 -0.005198 0.007350 0.019943 0.032546 0.045122 0.057636 0.070051 0.082333 0.094445 0.106354 0.118024 0.129422 0.140514 0.151268 0.161653 0.171637 0.181192 0.190289 0.198901 0.207003 0.214570 0.221580 0.228012 0.233847 0.239069 0.243661 0.247610 0.250906 0.253538 0.255499 0.256784 0.257389 0.257312 0.256555 0.255119 0.253009 0.250231 0.246793 0.242704 0.237977 0.232626 0.226665 0.220111 0.212985 0.205306 0.197097 0.188382 0.179187 0.169538 0.159465 0.148996 0.138163 0.126997 0.115531 0.103800 0.091837 0.079678 0.067358 0.054913 0.042379 0.029793 0.017192 0.004612 -0.007911 -0.020340 -0.032639 -0.044774 -0.056711 -0.068415 -0.079854 -0.090999 -0.101819 -0.112287 -0.122379 -0.132070 -0.141341 -0.150172 -0.158550 -0.166460 -0.173892 -0.180841 -0.187300 -0.181064 -0.174099 -0.166595 -0.158563 -0.150016 -0.140973 -0.131453 -0.121477 -0.111069 -0.100256 -0.089064 -0.077524 -0.065666 -0.053522 -0.041126 -0.028511 -0.015713 -0.002767 0.010291 0.023424 0.036595 0.049768 0.062906 0.075971 0.088927 0.101737 0.114365 0.126776 0.138933 0.150802 0.162348 0.173540 0.184343 0.194728 0.204663 0.214120 0.223071 0.231490 0.239352 0.246634 0.253315 0.259376 0.264798 0.269567 0.273669 0.277091 0.279824 0.281861 0.283195 0.283824 0.283745 0.282959 0.281469 0.279278 0.276393 0.272822 0.268576 0.263667 0.258107 0.251915 0.245106 0.237701 0.229721 0.221189 0.212130 0.202570 0.192536 0.182059 0.171168 0.159895 0.148272 0.136334 0.124114 0.111649 0.098973 0.086123 0.073137 0.060050 0.046901 0.033726 0.020564 0.007452 -0.005574 -0.018475 -0.031217 -0.043764 -0.056080 -0.068134 -0.079892 -0.091325 -0.102404 -0.113101 -0.123394 -0.133259 -0.142678 -0.151633 -0.160111 -0.168101 -0.175594 -0.182585 -0.175896 -0.168386 -0.160326 -0.151728 -0.142608 -0.132984 -0.122877 -0.112307 -0.101302 -0.089887 -0.078092 -0.065946 -0.053482 -0.040732 -0.027730 -0.014513 -0.001115 0.012427 0.026075 0.039793 0.053542 0.067285 0.080983 0.094599 0.108095 0.121433 0.134576 0.147488 0.160131 0.172470 0.184471 0.196099 0.207321 0.218105 0.228420 0.238236 0.247525 0.256260 0.264417 0.271971 0.278900 0.285186 0.290810 0.295755 0.300008 0.303557 0.306391 0.308503 0.309887 0.310540 0.310458 0.309644 0.308099 0.305827 0.302836 0.299133 0.294730 0.289638 0.283871 0.277447 0.270384 0.262701 0.254420 0.245566 0.236163 0.226239 0.215821 0.204940 0.193627 0.181915 0.169836 0.157425 0.144718 0.131750 0.118559 0.105180 0.091652 0.078013 0.064300 0.050553 0.036810 0.023109 0.009488 -0.004016 -0.017364 -0.030521 -0.043450 -0.056118 -0.068490 -0.080536 -0.092226 -0.103531 -0.114426 -0.124887 -0.134895 -0.144431 -0.153480 -0.162030 -0.170071 -0.177597 -0.170470 -0.162414 -0.153797 -0.144634 -0.134940 -0.124734 -0.114038 -0.102876 -0.091273 -0.079257 -0.066857 -0.054106 -0.041036 -0.027680 -0.014074 -0.000255 0.013742 0.027879 0.042117 0.056418 0.070744 0.085055 0.099313 0.113479 0.127513 0.141378 0.155034 0.168445 0.181573 0.194382 0.206835 0.218898 0.230537 0.241719 0.252412 0.262586 0.272212 0.281263 0.289713 0.297538 0.304716 0.311226 0.317049 0.322170 0.326575 0.330249 0.333184 0.335372 0.336805 0.337481 0.337397 0.336555 0.334955 0.332603 0.329506 0.325672 0.321111 0.315838 0.309865 0.303211 0.295893 0.287933 0.279353 0.270177 0.260432 0.250144 0.239343 0.228061 0.216327 0.204177 0.191643 0.178761 0.165567 0.152099 0.138392 0.124486 0.110418 0.096228 0.081954 0.067636 0.053312 0.039023 0.024808 0.010704 -0.003249 -0.017015 -0.030555 -0.043836 -0.056822 -0.069480 -0.081780 -0.093692 -0.105189 -0.116248 -0.126845 -0.136963 -0.146584 -0.155696 -0.164287 -0.172352 -0.164809 -0.156205 -0.147032 -0.137303 -0.127035 -0.116249 -0.104965 -0.093210 -0.081010 -0.068394 -0.055392 -0.042037 -0.028362 -0.014402 -0.000193 0.014227 0.028821 0.043551 0.058377 0.073260 0.088160 0.103038 0.117853 0.132566 0.147136 0.161525 0.175693 0.189602 0.203212 0.216488 0.229391 0.241887 0.253941 0.265519 0.276589 0.287119 0.297081 0.306446 0.315188 0.323283 0.330707 0.337440 0.343463 0.348759 0.353314 0.357114 0.360149 0.362411 0.363894 0.364593 0.364507 0.363636 0.361982 0.359551 0.356348 0.352383 0.347667 0.342212 0.336034 0.329151 0.321581 0.313345 0.304467 0.294971 0.284885 0.274236 0.263054 0.251371 0.239219 0.226632 0.213645 0.200295 0.186617 0.172649 0.158430 0.143998 0.129392 0.114653 0.099820 0.084933 0.070032 0.055158 0.040350 0.025649 0.011093 -0.003279 -0.017429 -0.031320 -0.044917 -0.058186 -0.071094 -0.083612 -0.095710 -0.107365 -0.118552 -0.129251 -0.139444 -0.149119 -0.158262 -0.166866 -0.158931 -0.149783 -0.140054 -0.129760 -0.118920 -0.107554 -0.095686 -0.083340 -0.070545 -0.057330 -0.043728 -0.029770 -0.015493 -0.000931 0.013878 0.028896 0.044085 0.059404 0.074815 0.090277 0.105749 0.121190 0.136560 0.151817 0.166921 0.181831 0.196507 0.210910 0.225000 0.238740 0.252091 0.265018 0.277484 0.289456 0.300900 0.311784 0.322080 0.331757 0.340789 0.349151 0.356821 0.363775 0.369996 0.375466 0.380170 0.384095 0.387229 0.389566 0.391097 0.391820 0.391731 0.390832 0.389124 0.386614 0.383306 0.379211 0.374340 0.368706 0.362325 0.355214 0.347393 0.338883 0.329709 0.319896 0.309471 0.298463 0.286903 0.274822 0.262254 0.249233 0.235796 0.221979 0.207819 0.193355 0.178626 0.163671 0.148531 0.133246 0.117857 0.102404 0.086929 0.071473 0.056077 0.040781 0.025626 0.010651 -0.004105 -0.018603 -0.032808 -0.046684 -0.060198 -0.073319 -0.086017 -0.098265 -0.110039 -0.121318 -0.132084 -0.142320 -0.152014 -0.161158 -0.152861 -0.143169 -0.132887 -0.122031 -0.110622 -0.098679 -0.086227 -0.073294 -0.059907 -0.046097 -0.031897 -0.017341 -0.002464 0.012696 0.028102 0.043714 0.059494 0.075400 0.091393 0.107429 0.123469 0.139470 0.155390 0.171187 0.186820 0.202248 0.217429 0.232322 0.246889 0.261089 0.274884 0.288238 0.301114 0.313476 0.325291 0.336527 0.347153 0.357140 0.366461 0.375089 0.383001 0.390175 0.396592 0.402235 0.407086 0.411135 0.414368 0.416778 0.418358 0.419103 0.419012 0.418085 0.416324 0.413735 0.410323 0.406100 0.401075 0.395263 0.388680 0.381344 0.373274 0.364493 0.355026 0.344898 0.334137 0.322773 0.310837 0.298361 0.285380 0.271929 0.258045 0.243765 0.229127 0.214170 0.198935 0.183462 0.167791 0.151964 0.136022 0.120008 0.103963 0.087929 0.071949 0.056063 0.040313 0.024739 0.009382 -0.005719 -0.020528 -0.035007 -0.049123 -0.062843 -0.076136 -0.088975 -0.101334 -0.113191 -0.124525 -0.135322 -0.145566 -0.155249 -0.146620 -0.136387 -0.125555 -0.114141 -0.102165 -0.089650 -0.076619 -0.063102 -0.049127 -0.034726 -0.019932 -0.004782 0.010690 0.026444 0.042442 0.058645 0.075011 0.091499 0.108068 0.124675 0.141277 0.157833 0.174299 0.190632 0.206789 0.222730 0.238410 0.253790 0.268828 0.283485 0.297721 0.311498 0.324779 0.337528 0.349711 0.361295 0.372249 0.382542 0.392148 0.401039 0.409192 0.416584 0.423195 0.429008 0.434006 0.438177 0.441508 0.443990 0.445618 0.446386 0.446292 0.445337 0.443524 0.440857 0.437343 0.432992 0.427815 0.421827 0.415045 0.407485 0.399170 0.390121 0.380363 0.369923 0.358830 0.347113 0.334804 0.321938 0.308548 0.294671 0.280343 0.265604 0.250492 0.235048 0.219311 0.203323 0.187125 0.170761 0.154272 0.137701 0.121091 0.104485 0.087925 0.071455 0.055115 0.038949 0.022996 0.007296 -0.008111 -0.023188 -0.037901 -0.052215 -0.066099 -0.079524 -0.092463 -0.104894 -0.116794 -0.128148 -0.138940 -0.149159 -0.140230 -0.129462 -0.118084 -0.106117 -0.093579 -0.080495 -0.066891 -0.052794 -0.038236 -0.023249 -0.007867 0.007872 0.023933 0.040276 0.056861 0.073648 0.090595 0.107660 0.124800 0.141971 0.159131 0.176236 0.193242 0.210105 0.226782 0.243229 0.259404 0.275265 0.290770 0.305878 0.320549 0.334744 0.348426 0.361558 0.374105 0.386034 0.397311 0.407908 0.417795 0.426947 0.435337 0.442945 0.449748 0.455729 0.460872 0.465163 0.468591 0.471145 0.472820 0.473610 0.473514 0.472532 0.470666 0.467922 0.464306 0.459830 0.454503 0.448342 0.441362 0.433582 0.425023 0.415709 0.405665 0.394917 0.383495 0.371429 0.358753 0.345500 0.331705 0.317406 0.302641 0.287447 0.271866 0.255938 0.239705 0.223208 0.206490 0.189594 0.172563 0.155441 0.138272 0.121099 0.103967 0.086917 0.069995 0.053241 0.036699 0.020408 0.004409 -0.011260 -0.026564 -0.041466 -0.055935 -0.069941 -0.083456 -0.096455 -0.108917 -0.120824 -0.132160 -0.142912 -0.133717 -0.122417 -0.110500 -0.097984 -0.084890 -0.071244 -0.057071 -0.042401 -0.027266 -0.011699 0.004264 0.020587 0.037231 0.054156 0.071322 0.088687 0.106208 0.123843 0.141547 0.159277 0.176987 0.194635 0.212174 0.229560 0.246750 0.263698 0.280362 0.296698 0.312663 0.328217 0.343318 0.357926 0.372004 0.385514 0.398420 0.410688 0.422286 0.433182 0.443347 0.452755 0.461381 0.469200 0.476193 0.482341 0.487627 0.492036 0.495559 0.498184 0.499905 0.500717 0.500619 0.499609 0.497692 0.494872 0.491157 0.486556 0.481082 0.474749 0.467574 0.459577 0.450779 0.441203 0.430876 0.419824 0.408078 0.395668 0.382629 0.368994 0.354800 0.340085 0.324886 0.309244 0.293200 0.276795 0.260070 0.243070 0.225837 0.208416 0.190850 0.173184 0.155463 0.137730 0.120032 0.102411 0.084912 0.067579 0.050455 0.033580 0.016996 0.000742 -0.015145 -0.030629 -0.045676 -0.060256 -0.074340 -0.087903 -0.100921 -0.113375 -0.125250 -0.136531 -0.127104 -0.115279 -0.102828 -0.089769 -0.076127 -0.061924 -0.047190 -0.031954 -0.016249 -0.000110 0.016429 0.033327 0.050547 0.068047 0.085787 0.103722 0.121810 0.140007 0.158268 0.176548 0.194802 0.212985 0.231050 0.248953 0.266648 0.284090 0.301235 0.318039 0.334459 0.350452 0.365976 0.380992 0.395460 0.409342 0.422602 0.435205 0.447117 0.458308 0.468748 0.478409 0.487266 0.495294 0.502474 0.508785 0.514211 0.518738 0.522354 0.525049 0.526815 0.527649 0.527548 0.526512 0.524544 0.521650 0.517836 0.513113 0.507493 0.500992 0.493626 0.485415 0.476381 0.466547 0.455941 0.444590 0.432525 0.419776 0.406379 0.392368 0.377781 0.362654 0.347029 0.330945 0.314444 0.297567 0.280359 0.262863 0.245122 0.227183 0.209089 0.190886 0.172620 0.154336 0.136079 0.117895 0.099828 0.081924 0.064225 0.046775 0.029614 0.012783 -0.003679 -0.019736 -0.035354 -0.050501 -0.065147 -0.079265 -0.092833 -0.105829 -0.118236 -0.130041 -0.120414 -0.108071 -0.095094 -0.081501 -0.067316 -0.052566 -0.037278 -0.021484 -0.005217 0.011487 0.028592 0.046058 0.063845 0.081913 0.100217 0.118714 0.137361 0.156112 0.174921 0.193744 0.212533 0.231242 0.249825 0.268236 0.286428 0.304357 0.321975 0.339240 0.356106 0.372531 0.388472 0.403888 0.418740 0.432988 0.446596 0.459528 0.471751 0.483232 0.493942 0.503851 0.512935 0.521169 0.528532 0.535004 0.540569 0.545211 0.548918 0.551681 0.553493 0.554348 0.554244 0.553182 0.551164 0.548196 0.544286 0.539443 0.533680 0.527013 0.519459 0.511038 0.501772 0.491686 0.480805 0.469160 0.456781 0.443699 0.429950 0.415569 0.400594 0.385064 0.369018 0.352499 0.335548 0.318208 0.300523 0.282538 0.264298 0.245848 0.227235 0.208504 0.189701 0.170874 0.152067 0.133329 0.114704 0.096237 0.077973 0.059956 0.042227 0.024829 0.007800 -0.008822 -0.025002 -0.040706 -0.055906 -0.070572 -0.084681 -0.098212 -0.111145 -0.123466 -0.113674 -0.100821 -0.087324 -0.073205 -0.058488 -0.043198 -0.027365 -0.011022 0.005798 0.023058 0.040720 0.058745 0.077090 0.095715 0.114574 0.133625 0.152821 0.172116 0.191465 0.210820 0.230134 0.249361 0.268453 0.287363 0.306044 0.324450 0.342534 0.360250 0.377555 0.394404 0.410754 0.426564 0.441792 0.456400 0.470350 0.483605 0.496132 0.507898 0.518872 0.529026 0.538332 0.546768 0.554311 0.560941 0.566641 0.571396 0.575194 0.578024 0.579879 0.580755 0.580649 0.579561 0.577494 0.574454 0.570449 0.565488 0.559585 0.552755 0.545017 0.536390 0.526896 0.516562 0.505413 0.493479 0.480791 0.467382 0.453288 0.438544 0.423188 0.407261 0.390803 0.373856 0.356463 0.338668 0.320515 0.302050 0.283319 0.264367 0.245243 0.225992 0.206663 0.187302 0.167956 0.148673 0.129498 0.110479 0.091660 0.073086 0.054800 0.036845 0.019259 0.002082 -0.014650 -0.030904 -0.046648 -0.061853 -0.076495 -0.090552 -0.104003 -0.116833 -0.106907 -0.093553 -0.079547 -0.064910 -0.049669 -0.033849 -0.017482 -0.000599 0.016764 0.034569 0.052779 0.071352 0.090246 0.109417 0.128822 0.148415 0.168150 0.187979 0.207857 0.227735 0.247565 0.267299 0.286890 0.306289 0.325449 0.344322 0.362862 0.381022 0.398756 0.416021 0.432772 0.448967 0.464564 0.479524 0.493808 0.507381 0.520205 0.532250 0.543483 0.553876 0.563402 0.572035 0.579754 0.586539 0.592372 0.597237 0.601123 0.604019 0.605917 0.606813 0.606704 0.605591 0.603477 0.600366 0.596267 0.591191 0.585151 0.578162 0.570243 0.561414 0.551698 0.541120 0.529708 0.517492 0.504502 0.490773 0.476340 0.461240 0.445512 0.429195 0.412333 0.394966 0.377140 0.358898 0.340286 0.321350 0.302137 0.282694 0.263069 0.243309 0.223463 0.203578 0.183703 0.163886 0.144173 0.124612 0.105249 0.086129 0.067297 0.048794 0.030663 0.012941 -0.004333 -0.021125 -0.037403 -0.053138 -0.068303 -0.082876 -0.096836 -0.110168 -0.100138 -0.086292 -0.071787 -0.056644 -0.040888 -0.024549 -0.007657 0.009754 0.027649 0.045989 0.064734 0.083844 0.103275 0.122983 0.142922 0.163046 0.183308 0.203661 0.224056 0.244445 0.264780 0.285011 0.305090 0.324968 0.344596 0.363927 0.382912 0.401505 0.419660 0.437331 0.454474 0.471045 0.487003 0.502308 0.516919 0.530801 0.543917 0.556235 0.567721 0.578348 0.588087 0.596914 0.604805 0.611741 0.617703 0.622677 0.626648 0.629608 0.631549 0.632464 0.632353 0.631215 0.629054 0.625874 0.621685 0.616496 0.610322 0.603178 0.595082 0.586056 0.576122 0.565307 0.553637 0.541144 0.527859 0.513817 0.499053 0.483605 0.467512 0.450815 0.433557 0.415780 0.397530 0.378851 0.359790 0.340393 0.320709 0.300785 0.280669 0.260411 0.240059 0.219662 0.199269 0.178929 0.158689 0.138598 0.118703 0.099048 0.079681 0.060643 0.041977 0.023723 0.005918 -0.011401 -0.028203 -0.044456 -0.060134 -0.075213 -0.089673 -0.103495 -0.093393 -0.079066 -0.064071 -0.048432 -0.032175 -0.015328 0.002077 0.020005 0.038420 0.057283 0.076553 0.096188 0.116143 0.136374 0.156835 0.177479 0.198256 0.219120 0.240021 0.260910 0.281737 0.302453 0.323009 0.343353 0.363439 0.383216 0.402637 0.421653 0.440217 0.458285 0.475810 0.492749 0.509059 0.524699 0.539630 0.553813 0.567214 0.579797 0.591531 0.602385 0.612333 0.621348 0.629407 0.636490 0.642579 0.647658 0.651714 0.654736 0.656718 0.657653 0.657539 0.656377 0.654170 0.650923 0.646645 0.641347 0.635041 0.627746 0.619478 0.610259 0.600113 0.589066 0.577146 0.564383 0.550810 0.536462 0.521375 0.505587 0.489138 0.472070 0.454426 0.436249 0.417584 0.398479 0.378979 0.359132 0.338988 0.318594 0.297999 0.277255 0.256409 0.235512 0.214613 0.193762 0.173008 0.152399 0.131983 0.111808 0.091917 0.072357 0.053169 0.034394 0.016071 -0.001763 -0.019076 -0.035837 -0.052016 -0.067591 -0.082538 -0.096841 -0.086696 -0.071898 -0.056427 -0.040303 -0.023556 -0.006213 0.011692 0.030124 0.049046 0.068419 0.088200 0.108347 0.128814 0.149556 0.170526 0.191675 0.212956 0.234317 0.255711 0.277087 0.298394 0.319582 0.340602 0.361402 0.381932 0.402144 0.421988 0.441416 0.460380 0.478833 0.496730 0.514026 0.530679 0.546646 0.561887 0.576365 0.590042 0.602884 0.614858 0.625935 0.636085 0.645283 0.653506 0.660733 0.666945 0.672126 0.676263 0.679347 0.681368 0.682322 0.682206 0.681020 0.678769 0.675457 0.671092 0.665687 0.659254 0.651811 0.643376 0.633970 0.623617 0.612344 0.600180 0.587155 0.573302 0.558656 0.543254 0.527136 0.510340 0.492911 0.474890 0.456323 0.437255 0.417734 0.397807 0.377522 0.356929 0.336077 0.315017 0.293798 0.272471 0.251086 0.229695 0.208346 0.187091 0.165978 0.145055 0.124371 0.103972 0.083902 0.064205 0.044923 0.026095 0.007757 -0.010054 -0.027309 -0.043978 -0.060035 -0.075459 -0.090231 -0.080071 -0.064816 -0.048879 -0.032284 -0.015060 0.002765 0.021157 0.040080 0.059497 0.079365 0.099644 0.120288 0.141253 0.162492 0.183957 0.205598 0.227367 0.249213 0.271086 0.292935 0.314708 0.336356 0.357826 0.379068 0.400031 0.420665 0.440920 0.460748 0.480099 0.498927 0.517185 0.534829 0.551814 0.568098 0.583641 0.598404 0.612350 0.625443 0.637651 0.648942 0.659289 0.668666 0.677047 0.684413 0.690745 0.696025 0.700242 0.703385 0.705444 0.706416 0.706298 0.705090 0.702795 0.699420 0.694972 0.689463 0.682906 0.675320 0.666722 0.657134 0.646581 0.635089 0.622687 0.609407 0.595282 0.580347 0.564640 0.548200 0.531068 0.513287 0.494901 0.475955 0.456496 0.436571 0.416229 0.395518 0.374489 0.353192 0.331679 0.309999 0.288204 0.266346 0.244476 0.222644 0.200901 0.179298 0.157882 0.136704 0.115809 0.095244 0.075052 0.055277 0.035957 0.017131 -0.001166 -0.018902 -0.036047 -0.052575 -0.068463 -0.083691 -0.073542 -0.057842 -0.041454 -0.024402 -0.006713 0.011580 0.030445 0.049844 0.069739 0.090089 0.110850 0.131978 0.153426 0.175146 0.197091 0.219209 0.241452 0.263768 0.286105 0.308412 0.330638 0.352731 0.374638 0.396308 0.417690 0.438733 0.459387 0.479602 0.499328 0.518519 0.537127 0.555107 0.572414 0.589006 0.604841 0.619880 0.634085 0.647422 0.659856 0.671356 0.681894 0.691442 0.699978 0.707478 0.713925 0.719303 0.723596 0.726796 0.728893 0.729883 0.729762 0.728532 0.726196 0.722759 0.718230 0.712620 0.705944 0.698219 0.689463 0.679699 0.668952 0.657248 0.644616 0.631089 0.616700 0.601485 0.585482 0.568731 0.551273 0.533152 0.514412 0.495099 0.475260 0.454944 0.434199 0.413076 0.391625 0.369897 0.347944 0.325817 0.303569 0.281252 0.258917 0.236617 0.214401 0.192322 0.170429 0.148771 0.127396 0.106351 0.085679 0.065424 0.045628 0.026328 0.007560 -0.010643 -0.028250 -0.045235 -0.061573 -0.077245 -0.067134 -0.051003 -0.034177 -0.016681 0.001456 0.020202 0.039525 0.059385 0.079744 0.100559 0.121787 0.143382 0.165297 0.187484 0.209893 0.232473 0.255173 0.277943 0.300730 0.323481 0.346143 0.368666 0.390995 0.413080 0.434867 0.456305 0.477344 0.497932 0.518022 0.537563 0.556509 0.574814 0.592432 0.609320 0.625437 0.640743 0.655199 0.668771 0.681423 0.693124 0.703846 0.713561 0.722245 0.729876 0.736435 0.741905 0.746273 0.749528 0.751661 0.752668 0.752546 0.751294 0.748917 0.745421 0.740813 0.735107 0.728315 0.720456 0.711548 0.701614 0.690679 0.678770 0.665916 0.652151 0.637507 0.622021 0.605733 0.588681 0.570908 0.552458 0.533376 0.513708 0.493502 0.472808 0.451674 0.430152 0.408293 0.386149 0.363771 0.341213 0.318527 0.295765 0.272982 0.250228 0.227556 0.205017 0.182662 0.160540 0.138700 0.117190 0.096054 0.075336 0.055078 0.035318 0.016094 -0.002560 -0.020615 -0.038042 -0.054816 -0.070918 -0.060870 -0.044322 -0.027073 -0.009149 0.009421 0.028606 0.048369 0.068674 0.089481 0.110745 0.132423 0.154469 0.176835 0.199471 0.222327 0.245352 0.268495 0.291702 0.314921 0.338100 0.361184 0.384121 0.406857 0.429341 0.451518 0.473337 0.494746 0.515695 0.536134 0.556013 0.575284 0.593901 0.611819 0.628993 0.645381 0.660944 0.675642 0.689440 0.702302 0.714198 0.725097 0.734972 0.743799 0.751555 0.758221 0.763781 0.768221 0.771529 0.773697 0.774720 0.774596 0.773324 0.770908 0.767355 0.762672 0.756872 0.749969 0.741980 0.732926 0.722828 0.711712 0.699605 0.686538 0.672543 0.657653 0.641907 0.625343 0.608002 0.589925 0.571158 0.551747 0.531737 0.511179 0.490120 0.468612 0.446706 0.424453 0.401907 0.379121 0.356146 0.333038 0.309849 0.286632 0.263441 0.240329 0.217346 0.194546 0.171977 0.149689 0.127730 0.106146 0.084981 0.064277 0.044075 0.024411 0.005320 -0.013166 -0.031020 -0.048216 -0.064732 -0.054772 -0.037822 -0.020166 -0.001830 0.017157 0.036763 0.056951 0.077684 0.098920 0.120617 0.142728 0.165207 0.188006 0.211073 0.234360 0.257812 0.281379 0.305007 0.328643 0.352232 0.375721 0.399056 0.422183 0.445050 0.467602 0.489786 0.511552 0.532847 0.553621 0.573824 0.593408 0.612325 0.630530 0.647978 0.664627 0.680437 0.695367 0.709381 0.722446 0.734527 0.745596 0.755625 0.764589 0.772466 0.779236 0.784882 0.789390 0.792749 0.794951 0.795990 0.795863 0.794572 0.792119 0.788510 0.783755 0.777865 0.770855 0.762743 0.753547 0.743292 0.732003 0.719706 0.706434 0.692217 0.677093 0.661096 0.644268 0.626648 0.608281 0.589210 0.569481 0.549144 0.528246 0.506838 0.484970 0.462695 0.440065 0.417133 0.393954 0.370580 0.347066 0.323466 0.299833 0.276222 0.252686 0.229278 0.206049 0.183050 0.160331 0.137940 0.115925 0.094330 0.073198 0.052570 0.032483 0.012972 -0.005930 -0.0241