# vtk DataFile Version 3.0
vtk output
ASCII
DATASET STRUCTURED_POINTS
DIMENSIONS 100 100 1
SPACING 0.019941 0.020049 0
ORIGIN -0.981127 -0.986808 0
POINT_DATA 10000
SCALARS RTData float
LOOKUP_TABLE default
-0.255385 -0.249224 -0.243025 -0.236785 -0.230501 -0.224169 -0.217788 -0.211356 -0.204870 -0.198329 -0.191734 -0.185083 -0.178378 -0.171620 -0.164811 -0.157954 -0.151053 -0.144113 -0.137140 -0.130142 -0.123128 -0.116107 -0.109090 -0.102092 -0.095126 -0.088209 -0.081359 -0.074594 -0.067936 -0.061405 -0.055024 -0.048815 -0.042800 -0.037002 -0.031441 -0.026139 -0.021114 -0.016385 -0.011967 -0.007875 -0.004122 -0.000720 0.002321 0.004992 0.007285 0.009193 0.010710 0.011829 0.012547 0.012860 0.012765 0.012260 0.011345 0.010021 0.008291 0.006159 0.003633 0.000720 -0.002568 -0.006219 -0.010218 -0.014547 -0.019190 -0.024126 -0.029335 -0.034797 -0.040490 -0.046392 -0.052481 -0.058738 -0.065141 -0.071669 -0.078302 -0.085022 -0.091808 -0.098640 -0.105500 -0.112368 -0.119223 -0.126045 -0.132813 -0.139508 -0.146107 -0.152590 -0.158938 -0.165132 -0.171154 -0.176989 -0.182624 -0.188050 -0.193259 -0.198248 -0.203017 -0.207571 -0.211915 -0.216062 -0.220023 -0.223817 -0.227460 -0.230974 -0.249823 -0.243459 -0.237046 -0.230580 -0.224056 -0.217472 -0.210825 -0.204112 -0.197331 -0.190481 -0.183560 -0.176568 -0.169506 -0.162376 -0.155180 -0.147921 -0.140605 -0.133238 -0.125826 -0.118379 -0.110906 -0.103419 -0.095932 -0.088460 -0.081020 -0.073630 -0.066310 -0.059082 -0.051968 -0.044992 -0.038178 -0.031550 -0.025133 -0.018950 -0.013025 -0.007378 -0.002030 0.003001 0.007697 0.012044 0.016028 0.019637 0.022862 0.025692 0.028120 0.030140 0.031743 0.032926 0.033683 0.034011 0.033907 0.033369 0.032396 0.030991 0.029155 0.026893 0.024213 0.021123 0.017635 0.013762 0.009519 0.004923 -0.000006 -0.005250 -0.010786 -0.016593 -0.022649 -0.028931 -0.035418 -0.042087 -0.048916 -0.055886 -0.062974 -0.070160 -0.077424 -0.084744 -0.092102 -0.099475 -0.106842 -0.114181 -0.121469 -0.128685 -0.135804 -0.142805 -0.149665 -0.156363 -0.162881 -0.169199 -0.175304 -0.181183 -0.186828 -0.192234 -0.197401 -0.202330 -0.207029 -0.211508 -0.215781 -0.219864 -0.223777 -0.227540 -0.244114 -0.237533 -0.230891 -0.224182 -0.217403 -0.210551 -0.203620 -0.196609 -0.189515 -0.182335 -0.175070 -0.167717 -0.160280 -0.152758 -0.145156 -0.137477 -0.129726 -0.121912 -0.114043 -0.106128 -0.098179 -0.090210 -0.082237 -0.074277 -0.066348 -0.058472 -0.050670 -0.042967 -0.035388 -0.027958 -0.020703 -0.013650 -0.006824 -0.000251 0.006044 0.012040 0.017715 0.023050 0.028028 0.032632 0.036850 0.040668 0.044078 0.047069 0.049634 0.051766 0.053457 0.054704 0.055500 0.055843 0.055729 0.055157 0.054125 0.052637 0.050693 0.048300 0.045465 0.042196 0.038505 0.034406 0.029915 0.025050 0.019829 0.014274 0.008407 0.002250 -0.004175 -0.010844 -0.017734 -0.024822 -0.032087 -0.039505 -0.047057 -0.054719 -0.062470 -0.070290 -0.078156 -0.086047 -0.093938 -0.101807 -0.109629 -0.117380 -0.125036 -0.132570 -0.139959 -0.147180 -0.154211 -0.161031 -0.167625 -0.173977 -0.180079 -0.185923 -0.191507 -0.196834 -0.201908 -0.206741 -0.211346 -0.215740 -0.219941 -0.223972 -0.238252 -0.231438 -0.224551 -0.217584 -0.210533 -0.203394 -0.196163 -0.188835 -0.181409 -0.173881 -0.166252 -0.158520 -0.150687 -0.142754 -0.134726 -0.126608 -0.118405 -0.110126 -0.101781 -0.093381 -0.084941 -0.076475 -0.068001 -0.059539 -0.051109 -0.042735 -0.034442 -0.026255 -0.018202 -0.010310 -0.002608 0.004876 0.012115 0.019082 0.025752 0.032100 0.038105 0.043747 0.049008 0.053872 0.058325 0.062355 0.065951 0.069104 0.071807 0.074051 0.075831 0.077142 0.077978 0.078335 0.078211 0.077604 0.076514 0.074941 0.072889 0.070363 0.067370 0.063920 0.060024 0.055697 0.050956 0.045818 0.040303 0.034433 0.028231 0.021718 0.014920 0.007860 0.000561 -0.006953 -0.014659 -0.022534 -0.030556 -0.038702 -0.046950 -0.055278 -0.063663 -0.072080 -0.080507 -0.088918 -0.097286 -0.105586 -0.113791 -0.121873 -0.129807 -0.137566 -0.145127 -0.152467 -0.159568 -0.166413 -0.172991 -0.179293 -0.185315 -0.191060 -0.196531 -0.201739 -0.206697 -0.211421 -0.215932 -0.220252 -0.232230 -0.225169 -0.218021 -0.210779 -0.203439 -0.195996 -0.188445 -0.180782 -0.173005 -0.165110 -0.157097 -0.148967 -0.140719 -0.132356 -0.123884 -0.115307 -0.106634 -0.097873 -0.089036 -0.080136 -0.071189 -0.062212 -0.053225 -0.044249 -0.035308 -0.026427 -0.017634 -0.008955 -0.000422 0.007937 0.016091 0.024011 0.031667 0.039032 0.046078 0.052781 0.059118 0.065069 0.070615 0.075739 0.080429 0.084672 0.088456 0.091773 0.094614 0.096972 0.098841 0.100216 0.101092 0.101464 0.101330 0.100688 0.099537 0.097880 0.095718 0.093058 0.089906 0.086273 0.082171 0.077615 0.072621 0.067207 0.061396 0.055208 0.048667 0.041796 0.034621 0.027165 0.019452 0.011508 0.003355 -0.004982 -0.013481 -0.022118 -0.030870 -0.039713 -0.048625 -0.057579 -0.066550 -0.075512 -0.084437 -0.093297 -0.102064 -0.110707 -0.119199 -0.127511 -0.135617 -0.143494 -0.151119 -0.158474 -0.165546 -0.172325 -0.178806 -0.184989 -0.190878 -0.196482 -0.201814 -0.206891 -0.211733 -0.216362 -0.226047 -0.218723 -0.211297 -0.203763 -0.196116 -0.188351 -0.180462 -0.172445 -0.164298 -0.156017 -0.147602 -0.139053 -0.130371 -0.121561 -0.112626 -0.103573 -0.094412 -0.085153 -0.075809 -0.066394 -0.056927 -0.047427 -0.037916 -0.028416 -0.018955 -0.009559 -0.000259 0.008917 0.017935 0.026766 0.035375 0.043733 0.051809 0.059572 0.066996 0.074056 0.080726 0.086987 0.092819 0.098207 0.103135 0.107591 0.111564 0.115045 0.118026 0.120499 0.122458 0.123898 0.124813 0.125200 0.125056 0.124379 0.123168 0.121425 0.119153 0.116358 0.113047 0.109230 0.104920 0.100133 0.094884 0.089194 0.083084 0.076576 0.069694 0.062462 0.054906 0.047051 0.038921 0.030542 0.021938 0.013134 0.004153 -0.004980 -0.014242 -0.023608 -0.033052 -0.042550 -0.052073 -0.061595 -0.071086 -0.080515 -0.089853 -0.099069 -0.108130 -0.117008 -0.125674 -0.134101 -0.142265 -0.150148 -0.157732 -0.165007 -0.171965 -0.178606 -0.184933 -0.190954 -0.196681 -0.202132 -0.207326 -0.212286 -0.219702 -0.212098 -0.204378 -0.196535 -0.188564 -0.180458 -0.172213 -0.163823 -0.155287 -0.146601 -0.137765 -0.128779 -0.119645 -0.110368 -0.100953 -0.091408 -0.081743 -0.071971 -0.062105 -0.052163 -0.042165 -0.032131 -0.022085 -0.012054 -0.002066 0.007851 0.017663 0.027340 0.036847 0.046151 0.055218 0.064015 0.072511 0.080675 0.088478 0.095893 0.102898 0.109470 0.115590 0.121240 0.126407 0.131078 0.135241 0.138888 0.142009 0.144598 0.146648 0.148153 0.149109 0.149511 0.149357 0.148644 0.147373 0.145544 0.143162 0.140231 0.136760 0.132758 0.128240 0.123220 0.117717 0.111749 0.105338 0.098509 0.091284 0.083689 0.075750 0.067493 0.058943 0.050126 0.041067 0.031792 0.022325 0.012691 0.002915 -0.006977 -0.016960 -0.027007 -0.037089 -0.047177 -0.057240 -0.067247 -0.077165 -0.086961 -0.096603 -0.106057 -0.115294 -0.124284 -0.133003 -0.141427 -0.149540 -0.157328 -0.164782 -0.171900 -0.178685 -0.185143 -0.191286 -0.197132 -0.202700 -0.208012 -0.213195 -0.205296 -0.197265 -0.189096 -0.180783 -0.172319 -0.163699 -0.154918 -0.145974 -0.136865 -0.127589 -0.118148 -0.108544 -0.098783 -0.088872 -0.078819 -0.068636 -0.058336 -0.047937 -0.037456 -0.026916 -0.016339 -0.005752 0.004817 0.015339 0.025780 0.036108 0.046287 0.056284 0.066063 0.075588 0.084825 0.093741 0.102304 0.110486 0.118259 0.125598 0.132481 0.138888 0.144803 0.150209 0.155095 0.159450 0.163263 0.166526 0.169231 0.171372 0.172944 0.173941 0.174359 0.174194 0.173447 0.172115 0.170200 0.167707 0.164640 0.161008 0.156822 0.152095 0.146843 0.141083 0.134837 0.128125 0.120973 0.113404 0.105445 0.097121 0.088460 0.079488 0.070231 0.060715 0.050967 0.041010 0.030873 0.020579 0.010156 -0.000370 -0.010970 -0.021615 -0.032274 -0.042915 -0.053505 -0.064009 -0.074394 -0.084623 -0.094663 -0.104482 -0.114047 -0.123332 -0.132312 -0.140968 -0.149284 -0.157251 -0.164865 -0.172126 -0.179041 -0.185621 -0.191883 -0.197845 -0.203530 -0.206531 -0.198321 -0.189963 -0.181451 -0.172779 -0.163939 -0.154926 -0.145736 -0.136367 -0.126815 -0.117082 -0.107168 -0.097078 -0.086818 -0.076394 -0.065819 -0.055104 -0.044265 -0.033321 -0.022292 -0.011201 -0.000074 0.011061 0.022173 0.033230 0.044199 0.055043 0.065728 0.076214 0.086467 0.096449 0.106125 0.115461 0.124423 0.132983 0.141112 0.148785 0.155979 0.162674 0.168853 0.174500 0.179602 0.184149 0.188129 0.191534 0.194357 0.196591 0.198229 0.199268 0.199701 0.199528 0.198745 0.197352 0.195352 0.192748 0.189545 0.185753 0.181382 0.176446 0.170961 0.164945 0.158420 0.151407 0.143931 0.136018 0.127693 0.118984 0.109919 0.100523 0.090824 0.080849 0.070625 0.060177 0.049533 0.038719 0.027763 0.016692 0.005536 -0.005674 -0.016908 -0.028130 -0.039308 -0.050403 -0.061382 -0.072205 -0.082839 -0.093246 -0.103396 -0.113258 -0.122806 -0.132018 -0.140877 -0.149373 -0.157499 -0.165254 -0.172645 -0.179681 -0.186378 -0.192755 -0.198834 -0.199716 -0.191179 -0.182479 -0.173607 -0.164558 -0.155325 -0.145903 -0.136287 -0.126474 -0.116464 -0.106256 -0.095854 -0.085262 -0.074486 -0.063537 -0.052426 -0.041167 -0.029779 -0.018280 -0.006694 0.004954 0.016637 0.028323 0.039982 0.051577 0.063074 0.074436 0.085624 0.096600 0.107325 0.117763 0.127875 0.137629 0.146989 0.155925 0.164409 0.172415 0.179920 0.186903 0.193346 0.199234 0.204554 0.209293 0.213441 0.216990 0.219931 0.222258 0.223964 0.225044 0.225494 0.225311 0.224494 0.223041 0.220955 0.218240 0.214902 0.210949 0.206393 0.201248 0.195531 0.189259 0.182455 0.175141 0.167342 0.159084 0.150394 0.141299 0.131828 0.122007 0.111866 0.101431 0.090730 0.079790 0.068639 0.057303 0.045813 0.034195 0.022482 0.010704 -0.001106 -0.012912 -0.024679 -0.036370 -0.047945 -0.059368 -0.070600 -0.081604 -0.092345 -0.102793 -0.112919 -0.122698 -0.132114 -0.141152 -0.149805 -0.158072 -0.165956 -0.173466 -0.180618 -0.187429 -0.193921 -0.192758 -0.183880 -0.174821 -0.165575 -0.156133 -0.146491 -0.136642 -0.126583 -0.116311 -0.105826 -0.095128 -0.084222 -0.073113 -0.061809 -0.050321 -0.038663 -0.026850 -0.014902 -0.002841 0.009308 0.021519 0.033761 0.046003 0.058209 0.070343 0.082368 0.094246 0.105936 0.117398 0.128594 0.139484 0.150032 0.160200 0.169955 0.179266 0.188104 0.196442 0.204256 0.211527 0.218235 0.224365 0.229902 0.234834 0.239152 0.242845 0.245905 0.248325 0.250099 0.251222 0.251689 0.251498 0.250645 0.249133 0.246961 0.244136 0.240662 0.236549 0.231809 0.226456 0.220506 0.213979 0.206896 0.199282 0.191160 0.182558 0.173502 0.164022 0.154145 0.143900 0.133316 0.122420 0.111242 0.099809 0.088150 0.076293 0.064267 0.052103 0.039831 0.027485 0.015099 0.002708 -0.009650 -0.021936 -0.034111 -0.046136 -0.057969 -0.069574 -0.080914 -0.091954 -0.102666 -0.113024 -0.123006 -0.132600 -0.141794 -0.150587 -0.158980 -0.166982 -0.174605 -0.181869 -0.188793 -0.185668 -0.176434 -0.167002 -0.157365 -0.147516 -0.137449 -0.127159 -0.116641 -0.105895 -0.094920 -0.083718 -0.072294 -0.060655 -0.048811 -0.036773 -0.024557 -0.012181 0.000333 0.012963 0.025681 0.038459 0.051263 0.064060 0.076814 0.089487 0.102039 0.114430 0.126619 0.138565 0.150228 0.161568 0.172546 0.183127 0.193275 0.202958 0.212147 0.220816 0.228940 0.236498 0.243470 0.249841 0.255596 0.260723 0.265210 0.269048 0.272228 0.274742 0.276585 0.277751 0.278235 0.278035 0.277149 0.275576 0.273320 0.270384 0.266775 0.262503 0.257579 0.252018 0.245837 0.239055 0.231695 0.223780 0.215337 0.206391 0.196970 0.187105 0.176823 0.166154 0.155127 0.143771 0.132116 0.120191 0.108024 0.095646 0.083085 0.070375 0.057546 0.044633 0.031670 0.018695 0.005747 -0.007135 -0.019911 -0.032538 -0.044976 -0.057184 -0.069126 -0.080765 -0.092069 -0.103012 -0.113572 -0.123730 -0.133478 -0.142810 -0.151726 -0.160235 -0.168347 -0.176080 -0.183454 -0.178457 -0.168854 -0.159036 -0.148995 -0.138725 -0.128218 -0.117472 -0.106482 -0.095247 -0.083769 -0.072050 -0.060096 -0.047916 -0.035520 -0.022923 -0.010141 0.002805 0.015893 0.029097 0.042387 0.055733 0.069101 0.082454 0.095755 0.108964 0.122040 0.134941 0.147626 0.160052 0.172178 0.183963 0.195369 0.206359 0.216896 0.226950 0.236489 0.245487 0.253919 0.261762 0.268999 0.275612 0.281585 0.286906 0.291563 0.295546 0.298847 0.301456 0.303368 0.304578 0.305079 0.304871 0.303950 0.302318 0.299977 0.296931 0.293188 0.288757 0.283650 0.277882 0.271470 0.264435 0.256799 0.248585 0.239821 0.230532 0.220748 0.210498 0.199812 0.188720 0.177251 0.165437 0.153306 0.140888 0.128215 0.115316 0.102223 0.088968 0.075583 0.062104 0.048567 0.035010 0.021473 0.007996 -0.005379 -0.018609 -0.031651 -0.044465 -0.057011 -0.069251 -0.081153 -0.092688 -0.103831 -0.114565 -0.124876 -0.134758 -0.144211 -0.153239 -0.161854 -0.170072 -0.177911 -0.171139 -0.161155 -0.150938 -0.140481 -0.129776 -0.118818 -0.107602 -0.096127 -0.084392 -0.072398 -0.060151 -0.047656 -0.034924 -0.021968 -0.008803 0.004551 0.018074 0.031739 0.045520 0.059385 0.073300 0.087231 0.101139 0.114985 0.128727 0.142323 0.155731 0.168907 0.181809 0.194393 0.206620 0.218450 0.229844 0.240768 0.251189 0.261076 0.270401 0.279139 0.287269 0.294769 0.301623 0.307814 0.313330 0.318158 0.322286 0.325707 0.328412 0.330394 0.331646 0.332166 0.331949 0.330995 0.329304 0.326878 0.323723 0.319846 0.315256 0.309967 0.303993 0.297353 0.290065 0.282154 0.273643 0.264559 0.254929 0.244783 0.234151 0.223062 0.211547 0.199638 0.187366 0.174760 0.161853 0.148675 0.135258 0.121634 0.107835 0.093898 0.079856 0.065747 0.051610 0.037486 0.023417 0.009445 -0.004386 -0.018032 -0.031451 -0.044602 -0.057446 -0.069948 -0.082079 -0.093811 -0.105126 -0.116009 -0.126451 -0.136450 -0.146010 -0.155141 -0.163856 -0.172174 -0.163730 -0.153355 -0.142728 -0.131843 -0.120692 -0.109270 -0.097574 -0.085603 -0.073356 -0.060837 -0.048051 -0.035006 -0.021715 -0.008191 0.005548 0.019481 0.033584 0.047830 0.062189 0.076629 0.091114 0.105607 0.120068 0.134455 0.148727 0.162840 0.176749 0.190412 0.203784 0.216823 0.229486 0.241735 0.253531 0.264838 0.275623 0.285854 0.295505 0.304548 0.312962 0.320725 0.327820 0.334229 0.339939 0.344937 0.349212 0.352753 0.355553 0.357604 0.358901 0.359438 0.359213 0.358225 0.356475 0.353966 0.350702 0.346691 0.341944 0.336474 0.330296 0.323427 0.315889 0.307705 0.298898 0.289496 0.279527 0.269021 0.258007 0.246517 0.234583 0.222236 0.209507 0.196429 0.183034 0.169353 0.155420 0.141268 0.126930 0.112442 0.097840 0.083163 0.068450 0.053743 0.039085 0.024519 0.010090 -0.004158 -0.018180 -0.031935 -0.045382 -0.058487 -0.071215 -0.083541 -0.095442 -0.106902 -0.117911 -0.128465 -0.138567 -0.148223 -0.157447 -0.166256 -0.156247 -0.145470 -0.134424 -0.123100 -0.111494 -0.099599 -0.087413 -0.074936 -0.062168 -0.049115 -0.035782 -0.022181 -0.008323 0.005774 0.020091 0.034606 0.049292 0.064121 0.079060 0.094074 0.109127 0.124180 0.139190 0.154116 0.168913 0.183537 0.197944 0.212088 0.225925 0.239412 0.252508 0.265171 0.277364 0.289051 0.300196 0.310770 0.320744 0.330091 0.338787 0.346812 0.354147 0.360774 0.366678 0.371846 0.376266 0.379928 0.382822 0.384943 0.386283 0.386838 0.386605 0.385584 0.383775 0.381182 0.377810 0.373667 0.368764 0.363114 0.356732 0.349638 0.341851 0.333395 0.324294 0.314577 0.304271 0.293406 0.282014 0.270125 0.257773 0.244989 0.231807 0.218259 0.204379 0.190199 0.175753 0.161075 0.146201 0.131167 0.116010 0.100769 0.085484 0.070199 0.054956 0.039800 0.024777 0.009931 -0.004692 -0.019048 -0.033098 -0.046804 -0.060131 -0.073052 -0.085542 -0.097583 -0.109164 -0.120280 -0.130930 -0.141120 -0.150863 -0.160172 -0.148707 -0.137521 -0.126047 -0.114277 -0.102206 -0.089830 -0.077146 -0.064155 -0.050859 -0.037265 -0.023380 -0.009215 0.005213 0.019888 0.034787 0.049886 0.065156 0.080567 0.096085 0.111672 0.127291 0.142900 0.158456 0.173915 0.189232 0.204363 0.219261 0.233881 0.248178 0.262109 0.275632 0.288705 0.301291 0.313353 0.324856 0.335769 0.346063 0.355711 0.364689 0.372974 0.380548 0.387391 0.393488 0.398825 0.403390 0.407172 0.410161 0.412351 0.413734 0.414307 0.414066 0.413011 0.411144 0.408468 0.404989 0.400714 0.395656 0.389828 0.383244 0.375926 0.367892 0.359166 0.349774 0.339744 0.329103 0.317883 0.306114 0.293830 0.281062 0.267846 0.254213 0.240198 0.225836 0.211160 0.196205 0.181006 0.165600 0.150024 0.134316 0.118516 0.102665 0.086806 0.070984 0.055243 0.039630 0.024191 0.008972 -0.005983 -0.020632 -0.034937 -0.048862 -0.062377 -0.075457 -0.088082 -0.100238 -0.111919 -0.123123 -0.133853 -0.144120 -0.153938 -0.141129 -0.129527 -0.117617 -0.105394 -0.092853 -0.079988 -0.066800 -0.053290 -0.039461 -0.025320 -0.010878 0.003853 0.018855 0.034110 0.049592 0.065275 0.081130 0.097122 0.113216 0.129374 0.145555 0.161716 0.177813 0.193800 0.209633 0.225264 0.240648 0.255738 0.270490 0.284859 0.298803 0.312282 0.325256 0.337690 0.349547 0.360796 0.371408 0.381355 0.390611 0.399155 0.406965 0.414023 0.420312 0.425818 0.430527 0.434428 0.437511 0.439769 0.441195 0.441785 0.441536 0.440449 0.438524 0.435765 0.432179 0.427774 0.422562 0.416557 0.409774 0.402233 0.393954 0.384962 0.375281 0.364940 0.353968 0.342395 0.330253 0.317576 0.304397 0.290750 0.276671 0.262193 0.247352 0.232184 0.216725 0.201010 0.185077 0.168964 0.152710 0.136357 0.119945 0.103519 0.087123 0.070803 0.054607 0.038580 0.022770 0.007221 -0.008023 -0.022924 -0.037444 -0.051551 -0.065220 -0.078428 -0.091160 -0.103408 -0.115168 -0.126443 -0.137240 -0.147571 -0.133531 -0.121507 -0.109158 -0.096477 -0.083459 -0.070102 -0.056405 -0.042371 -0.028005 -0.013315 0.001687 0.016986 0.032564 0.048398 0.064463 0.080730 0.097167 0.113738 0.130406 0.147130 0.163869 0.180577 0.197210 0.213720 0.230062 0.246188 0.262052 0.277606 0.292806 0.307608 0.321969 0.335848 0.349207 0.362007 0.374214 0.385796 0.396723 0.406965 0.416498 0.425298 0.433343 0.440614 0.447093 0.452765 0.457617 0.461636 0.464812 0.467138 0.468606 0.469213 0.468957 0.467836 0.465853 0.463013 0.459321 0.454788 0.449424 0.443243 0.436263 0.428501 0.419981 0.410724 0.400758 0.390109 0.378808 0.366886 0.354375 0.341309 0.327722 0.313650 0.299127 0.284191 0.268877 0.253222 0.237263 0.221037 0.204582 0.187938 0.171145 0.154244 0.137278 0.120290 0.103328 0.086436 0.069662 0.053055 0.036660 0.020523 0.004689 -0.010802 -0.025912 -0.040609 -0.054863 -0.068653 -0.081960 -0.094775 -0.107092 -0.118912 -0.130241 -0.141090 -0.125932 -0.113483 -0.100690 -0.087548 -0.074051 -0.060198 -0.045990 -0.031430 -0.016525 -0.001284 0.014278 0.030146 0.046299 0.062712 0.079358 0.096206 0.113222 0.130369 0.147606 0.164892 0.182183 0.199433 0.216595 0.233623 0.250467 0.267082 0.283419 0.299432 0.315075 0.330304 0.345076 0.359350 0.373088 0.386251 0.398804 0.410715 0.421952 0.432487 0.442293 0.451346 0.459623 0.467104 0.473772 0.479609 0.484601 0.488737 0.492005 0.494397 0.495908 0.496532 0.496267 0.495114 0.493074 0.490153 0.486357 0.481696 0.476181 0.469828 0.462652 0.454673 0.445913 0.436395 0.426146 0.415194 0.403568 0.391301 0.378424 0.364974 0.350984 0.336490 0.321530 0.306140 0.290358 0.274222 0.257769 0.241037 0.224068 0.206899 0.189573 0.172131 0.154617 0.137076 0.119554 0.102097 0.084754 0.067573 0.050600 0.033883 0.017466 0.001390 -0.014304 -0.029584 -0.044420 -0.058787 -0.072667 -0.086046 -0.098919 -0.111283 -0.123144 -0.134511 -0.118351 -0.105475 -0.092236 -0.078630 -0.064653 -0.050303 -0.035583 -0.020496 -0.005052 0.010738 0.026860 0.043295 0.060020 0.077010 0.094234 0.111659 0.129250 0.146967 0.164768 0.182610 0.200447 0.218232 0.235918 0.253456 0.270797 0.287894 0.304698 0.321163 0.337242 0.352893 0.368071 0.382735 0.396846 0.410367 0.423261 0.435496 0.447040 0.457864 0.467940 0.477242 0.485749 0.493438 0.500291 0.506291 0.511422 0.515672 0.519031 0.521489 0.523040 0.523680 0.523408 0.522222 0.520126 0.517125 0.513226 0.508439 0.502776 0.496252 0.488883 0.480690 0.471694 0.461918 0.451390 0.440138 0.428192 0.415584 0.402347 0.388516 0.374128 0.359220 0.343827 0.327990 0.311746 0.295134 0.278193 0.260964 0.243485 0.225799 0.207947 0.189972 0.171919 0.153832 0.135758 0.117745 0.099840 0.082093 0.064551 0.047261 0.030269 0.013617 -0.002655 -0.018512 -0.033923 -0.048861 -0.063308 -0.077248 -0.090673 -0.103580 -0.115971 -0.127855 -0.110806 -0.097502 -0.083817 -0.069748 -0.055290 -0.040443 -0.025212 -0.009601 0.006381 0.022719 0.039398 0.056397 0.073691 0.091252 0.109049 0.127046 0.145206 0.163487 0.181846 0.200237 0.218614 0.236927 0.255129 0.273170 0.291001 0.308573 0.325837 0.342747 0.359257 0.375323 0.390900 0.405949 0.420429 0.434302 0.447533 0.460088 0.471934 0.483042 0.493383 0.502932 0.511664 0.519557 0.526592 0.532751 0.538019 0.542382 0.545829 0.548352 0.549944 0.550600 0.550319 0.549102 0.546950 0.543871 0.539871 0.534960 0.529150 0.522458 0.514900 0.506495 0.497266 0.487237 0.476434 0.464887 0.452625 0.439681 0.426089 0.411884 0.397104 0.381786 0.365968 0.349690 0.332991 0.315910 0.298490 0.280769 0.262790 0.244594 0.226224 0.207724 0.189139 0.170515 0.151898 0.133337 0.114880 0.096576 0.078474 0.060620 0.043062 0.025842 0.009001 -0.007425 -0.023402 -0.038906 -0.053912 -0.068407 -0.082379 -0.095823 -0.108741 -0.121140 -0.103315 -0.089584 -0.075455 -0.060923 -0.045986 -0.030646 -0.014905 0.001228 0.017744 0.034626 0.051857 0.069414 0.087272 0.105399 0.123763 0.142326 0.161047 0.179885 0.198794 0.217727 0.236635 0.255469 0.274180 0.292716 0.311029 0.329068 0.346786 0.364135 0.381068 0.397542 0.413513 0.428940 0.443783 0.458003 0.471565 0.484434 0.496577 0.507964 0.518566 0.528356 0.537310 0.545404 0.552618 0.558933 0.564335 0.568808 0.572343 0.574928 0.576559 0.577231 0.576942 0.575694 0.573488 0.570331 0.566232 0.561199 0.555246 0.548389 0.540644 0.532031 0.522573 0.512295 0.501222 0.489384 0.476811 0.463537 0.449596 0.435024 0.419859 0.404138 0.387902 0.371190 0.354044 0.336503 0.318610 0.300407 0.281935 0.263238 0.244359 0.225344 0.206236 0.187083 0.167933 0.148833 0.129834 0.110983 0.092330 0.073923 0.055808 0.038030 0.020630 0.003646 -0.012890 -0.028949 -0.044508 -0.059549 -0.074060 -0.088036 -0.101476 -0.114384 -0.095897 -0.081741 -0.067169 -0.052178 -0.036766 -0.020934 -0.004689 0.011962 0.029006 0.046426 0.064204 0.082314 0.100727 0.119413 0.138336 0.157456 0.176731 0.196118 0.215568 0.235033 0.254465 0.273811 0.293022 0.312045 0.330832 0.349331 0.367495 0.385275 0.402625 0.419500 0.435858 0.451657 0.466856 0.481417 0.495304 0.508482 0.520916 0.532577 0.543435 0.553461 0.562631 0.570921 0.578310 0.584779 0.590311 0.594892 0.598511 0.601159 0.602828 0.603515 0.603219 0.601940 0.599681 0.596449 0.592251 0.587099 0.581006 0.573986 0.566058 0.557242 0.547560 0.537036 0.525699 0.513575 0.500698 0.487101 0.472817 0.457884 0.442341 0.426226 0.409579 0.392443 0.374857 0.356866 0.338510 0.319833 0.300878 0.281689 0.262311 0.242788 0.223168 0.203497 0.183823 0.164196 0.144663 0.125276 0.106084 0.087134 0.068474 0.050149 0.032201 0.014668 -0.002415 -0.019020 -0.035121 -0.050699 -0.065742 -0.080241 -0.094195 -0.107606 -0.088568 -0.073991 -0.058981 -0.043534 -0.027651 -0.011334 0.005410 0.022572 0.040138 0.058090 0.076406 0.095060 0.114022 0.133258 0.152731 0.172399 0.192218 0.212143 0.232125 0.252114 0.272059 0.291908 0.311609 0.331111 0.350363 0.369314 0.387915 0.406118 0.423877 0.441147 0.457885 0.474048 0.489597 0.504492 0.518697 0.532177 0.544897 0.556826 0.567933 0.578190 0.587571 0.596052 0.603612 0.610230 0.615889 0.620576 0.624277 0.626985 0.628692 0.629394 0.629090 0.627781 0.625471 0.622165 0.617872 0.612604 0.606373 0.599195 0.591088 0.582072 0.572170 0.561407 0.549809 0.537407 0.524232 0.510318 0.495699 0.480414 0.464500 0.447999 0.430952 0.413399 0.395385 0.376951 0.358142 0.339002 0.319574 0.299904 0.280036 0.260018 0.239895 0.219717 0.199530 0.179385 0.159332 0.139420 0.119699 0.100219 0.081026 0.062165 0.043681 0.025612 0.007993 -0.009146 -0.025778 -0.041883 -0.057447 -0.072460 -0.086919 -0.100825 -0.081345 -0.066352 -0.050908 -0.035012 -0.018664 -0.001868 0.015368 0.033034 0.051114 0.069588 0.088434 0.107623 0.127123 0.146899 0.166911 0.187116 0.207469 0.227922 0.248425 0.268926 0.289374 0.309716 0.329898 0.349868 0.369576 0.388969 0.407998 0.426617 0.444776 0.462433 0.479542 0.496062 0.511953 0.527176 0.541692 0.555467 0.568465 0.580655 0.592006 0.602488 0.612075 0.620742 0.628467 0.635229 0.641012 0.645801 0.649584 0.652350 0.654094 0.654811 0.654500 0.653162 0.650801 0.647423 0.643038 0.637656 0.631291 0.623958 0.615676 0.606465 0.596349 0.585351 0.573501 0.560826 0.547360 0.533136 0.518190 0.502561 0.486287 0.469410 0.451971 0.434013 0.415579 0.396715 0.377464 0.357870 0.337981 0.317840 0.297495 0.276992 0.256378 0.235704 0.215016 0.194366 0.173804 0.153379 0.133143 0.113144 0.093430 0.074048 0.055040 0.036447 0.018305 0.000645 -0.016505 -0.033126 -0.049199 -0.064716 -0.079670 -0.094062 -0.074245 -0.058840 -0.042970 -0.026631 -0.009826 0.007441 0.025161 0.043321 0.061905 0.080893 0.100257 0.119970 0.139997 0.160301 0.180841 0.201571 0.222446 0.243415 0.264427 0.285430 0.306369 0.327192 0.347844 0.368272 0.388425 0.408250 0.427699 0.446723 0.465274 0.483308 0.500781 0.517650 0.533875 0.549417 0.564236 0.578298 0.591568 0.604012 0.615599 0.626299 0.636086 0.644933 0.652818 0.659722 0.665625 0.670513 0.674373 0.677196 0.678976 0.679707 0.679389 0.678024 0.675614 0.672167 0.667692 0.662199 0.655704 0.648220 0.639768 0.630368 0.620042 0.608817 0.596719 0.583779 0.570030 0.555505 0.540241 0.524276 0.507652 0.490408 0.472588 0.454236 0.435395 0.416111 0.396429 0.376395 0.356055 0.335456 0.314645 0.293670 0.272578 0.251420 0.230244 0.209101 0.188042 0.167118 0.146379 0.125875 0.105655 0.085764 0.066247 0.047145 0.028494 0.010327 -0.007329 -0.024451 -0.041022 -0.057029 -0.072467 -0.087334 -0.067283 -0.051474 -0.035184 -0.018411 -0.001158 0.016571 0.034764 0.053409 0.072487 0.091976 0.111848 0.132072 0.152614 0.173433 0.194487 0.215730 0.237113 0.258585 0.280094 0.301584 0.323003 0.344294 0.365404 0.386279 0.406866 0.427113 0.446971 0.466390 0.485323 0.503725 0.521552 0.538761 0.555312 0.571163 0.586278 0.600620 0.614152 0.626842 0.638658 0.649570 0.659550 0.668571 0.676612 0.683651 0.689670 0.694654 0.698590 0.701468 0.703282 0.704028 0.703704 0.702312 0.699855 0.696341 0.691779 0.686179 0.679557 0.671927 0.663310 0.653725 0.643196 0.631749 0.619411 0.606214 0.592189 0.577372 0.561799 0.545510 0.528545 0.510946 0.492757 0.474021 0.454785 0.435094 0.414994 0.394532 0.373756 0.352711 0.331447 0.310012 0.288455 0.266826 0.245176 0.223554 0.202013 0.180603 0.159376 0.138381 0.117669 0.097284 0.077273 0.057676 0.038531 0.019871 0.001724 -0.015885 -0.032939 -0.049425 -0.065334 -0.080665 -0.060474 -0.044270 -0.027569 -0.010371 0.007321 0.025501 0.044157 0.063275 0.082834 0.102812 0.123178 0.143901 0.164943 0.186264 0.207819 0.229560 0.251437 0.273397 0.295388 0.317352 0.339236 0.360983 0.382538 0.403847 0.424856 0.445513 0.465768 0.485572 0.504876 0.523637 0.541808 0.559347 0.576213 0.592366 0.607767 0.622379 0.636166 0.649094 0.661132 0.672247 0.682413 0.691603 0.699793 0.706963 0.713094 0.718170 0.722179 0.725111 0.726958 0.727718 0.727388 0.725970 0.723469 0.719890 0.715243 0.709541 0.702795 0.695025 0.686247 0.676483 0.665758 0.654096 0.641526 0.628079 0.613787 0.598687 0.582816 0.566212 0.548918 0.530976 0.512429 0.493324 0.473705 0.453620 0.433116 0.412239 0.391039 0.369563 0.347860 0.325980 0.303972 0.281886 0.259775 0.237689 0.215679 0.193799 0.172098 0.150629 0.129439 0.108577 0.088087 0.068011 0.048388 0.029250 0.010628 -0.007453 -0.024976 -0.041925 -0.058292 -0.074074 -0.053834 -0.037244 -0.020142 -0.002529 0.015591 0.034211 0.053318 0.072895 0.092923 0.113375 0.134222 0.155428 0.176956 0.198763 0.220803 0.243027 0.265382 0.287816 0.310273 0.332697 0.355031 0.377219 0.399205 0.420934 0.442352 0.463407 0.484047 0.504223 0.523888 0.542995 0.561500 0.579359 0.596530 0.612974 0.628652 0.643525 0.657558 0.670716 0.682966 0.694278 0.704623 0.713974 0.722309 0.729604 0.735842 0.741007 0.745086 0.748070 0.749950 0.750723 0.750388 0.748946 0.746401 0.742760 0.738033 0.732230 0.725367 0.717459 0.708527 0.698591 0.687675 0.675805 0.663011 0.649323 0.634774 0.619401 0.603241 0.586335 0.568723 0.550449 0.531558 0.512096 0.492109 0.471644 0.450749 0.429473 0.407863 0.385970 0.363843 0.341532 0.319088 0.296561 0.274004 0.251469 0.229007 0.206671 0.184514 0.162585 0.140935 0.119611 0.098659 0.078121 0.058036 0.038438 0.019357 0.000818 -0.017157 -0.034555 -0.051365 -0.067583 -0.047378 -0.030412 -0.012920 0.005096 0.023633 0.042679 0.062224 0.082248 0.102730 0.123642 0.144953 0.166628 0.188625 0.210902 0.233410 0.256100 0.278917 0.301807 0.324715 0.347581 0.370350 0.392964 0.415366 0.437501 0.459314 0.480752 0.501764 0.522300 0.542312 0.561754 0.580581 0.598748 0.616215 0.632939 0.648883 0.664008 0.678277 0.691655 0.704110 0.715611 0.726127 0.735634 0.744106 0.751522 0.757863 0.763113 0.767260 0.770293 0.772204 0.772991 0.772651 0.771186 0.768599 0.764899 0.760093 0.754195 0.747218 0.739179 0.730098 0.719995 0.708896 0.696827 0.683816 0.669896 0.655100 0.639464 0.623027 0.605829 0.587912 0.569320 0.550098 0.530293 0.509951 0.489121 0.467851 0.446189 0.424186 0.401892 0.379356 0.356631 0.333766 0.310814 0.287827 0.264858 0.241960 0.219186 0.196588 0.174217 0.152123 0.130355 0.108959 0.087976 0.067446 0.047404 0.027882 0.008904 -0.009509 -0.027339 -0.044577 -0.061217 -0.041122 -0.023790 -0.005920 0.012488 0.031427 0.050887 0.070855 0.091311 0.112231 0.133587 0.155347 0.177473 0.199923 0.222651 0.245611 0.268748 0.292009 0.315339 0.338679 0.361971 0.385158 0.408181 0.430983 0.453507 0.475700 0.497507 0.518876 0.539759 0.560105 0.579869 0.599005 0.617469 0.635219 0.652213 0.668413 0.683778 0.698274 0.711863 0.724514 0.736195 0.746876 0.756531 0.765135 0.772666 0.779105 0.784437 0.788648 0.791728 0.793670 0.794470 0.794125 0.792638 0.790012 0.786255 0.781375 0.775384 0.768298 0.760133 0.750909 0.740646 0.729371 0.717110 0.703892 0.689749 0.674716 0.658828 0.642126 0.624648 0.606439 0.587542 0.568004 0.547870 0.527188 0.506007 0.484377 0.462347 0.439966 0.417287 0.394359 0.371234 0.347966 0.324605 0.301206 0.277821 0.254504 0.231309 0.208287 0.185492 0.162973 0.140778 0.118955 0.097545 0.076589 0.056122 0.036175 0.016775 -0.002057 -0.020303 -0.03