# vtk DataFile Version 3.0
vtk output
ASCII
DATASET STRUCTURED_POINTS
DIMENSIONS 100 100 1
SPACING 0.430364 0.722061 0
ORIGIN 10.688000 3.646000 0
POINT_DATA 10000
SCALARS RTData float
LOOKUP_TABLE default
22.964908 22.823532 22.681777 22.539622 22.397042 22.254020 22.110536 21.966578 21.822136 21.677204 21.531783 21.385880 21.239509 21.092693 20.945466 20.797870 20.649962 20.501811 20.353500 20.205129 20.056809 19.908670 19.760856 19.613524 19.466845 19.321000 19.176182 19.032590 18.890435 18.749935 18.611316 18.474818 18.340693 18.209208 18.080656 17.955360 17.833692 17.716103 17.603161 17.495616 17.394474 17.301093 17.217296 17.145484 17.088745 17.050931 17.036651 17.051142 17.099942 17.188367 17.320794 17.499901 17.726035 17.996927 18.307858 18.652200 19.022117 19.409158 19.804558 20.199178 20.583271 20.946791 21.281345 21.583335 21.854814 22.100683 22.325605 22.532838 22.724323 22.901080 23.063561 23.211889 23.346025 23.465884 23.571437 23.662791 23.740284 23.804562 23.856652 23.898017 23.930581 23.956725 23.979250 24.001336 24.026482 24.058431 24.101045 24.158102 24.233005 24.328441 24.446081 24.586382 24.748563 24.930718 25.130059 25.343211 25.566515 25.796304 26.029117 26.261862 22.773000 22.631049 22.488644 22.345753 22.202346 22.058394 21.913870 21.768750 21.623014 21.476644 21.329631 21.181968 21.033658 20.884712 20.735152 20.585009 20.434330 20.283176 20.131624 19.979767 19.827719 19.675608 19.523582 19.371804 19.220451 19.069710 18.919775 18.770847 18.623127 18.476821 18.332137 18.189284 18.048472 17.909915 17.773819 17.640391 17.509835 17.382377 17.258303 17.138022 17.022167 16.911726 16.808199 16.713794 16.631642 16.566020 16.522520 16.508061 16.530602 16.598419 16.718920 16.897151 17.134397 17.427489 17.769180 18.149428 18.556943 18.980415 19.409124 19.832981 20.242327 20.628155 20.983510 21.305548 21.595955 21.858899 22.098612 22.318255 22.519816 22.704375 22.872395 23.023946 23.158868 23.276898 23.377776 23.461359 23.527746 23.577411 23.611336 23.631120 23.639036 23.638016 23.631596 23.623829 23.619235 23.622781 23.639812 23.675808 23.735882 23.824119 23.942960 24.092845 24.272210 24.477778 24.705040 24.948798 25.203668 25.464486 25.726604 25.986061 22.590697 22.448488 22.305761 22.162477 22.018597 21.874084 21.728900 21.583013 21.436389 21.289001 21.140826 20.991844 20.842046 20.691429 20.540001 20.387782 20.234808 20.081130 19.926818 19.771964 19.616681 19.461105 19.305395 19.149730 18.994304 18.839324 18.685004 18.531556 18.379193 18.228123 18.078552 17.930684 17.784723 17.640867 17.499290 17.360127 17.223448 17.089256 16.957504 16.828159 16.701320 16.577370 16.457183 16.342369 16.235603 16.141034 16.064758 16.015207 16.003179 16.041139 16.141502 16.313796 16.561404 16.879658 17.256748 17.676871 18.123568 18.581898 19.039279 19.485465 19.912198 20.313053 20.683784 21.022868 21.331415 21.612146 21.868113 22.101862 22.315158 22.509021 22.683885 22.839753 22.976323 23.093099 23.189489 23.264931 23.319060 23.351923 23.364238 23.357622 23.334735 23.299277 23.255820 23.209595 23.166381 23.132639 23.115734 23.123794 23.164828 23.245292 23.368787 23.535431 23.742027 23.982794 24.250354 24.536691 24.833952 25.135009 25.433791 25.725442 22.418076 22.275943 22.133244 21.989931 21.845959 21.701282 21.555852 21.409626 21.262561 21.114616 20.965755 20.815946 20.665164 20.513392 20.360622 20.206862 20.052131 19.896471 19.739944 19.582637 19.424667 19.266181 19.107355 18.948398 18.789539 18.631026 18.473110 18.316041 18.160055 18.005379 17.852236 17.700854 17.551475 17.404355 17.259736 17.117803 16.978617 16.842048 16.707757 16.575244 16.443987 16.313640 16.184258 16.056550 15.932223 15.814531 15.709066 15.624729 15.574523 15.575576 15.647504 15.807787 16.064294 16.410032 16.825506 17.286326 17.769676 18.257148 18.735184 19.194555 19.629459 20.036568 20.414354 20.762731 21.082762 21.376195 21.644933 21.890612 22.114389 22.316899 22.498318 22.658435 22.796716 22.912346 23.004267 23.071253 23.112092 23.125904 23.112612 23.073467 23.011452 22.931360 22.839450 22.742818 22.648953 22.566055 22.504121 22.475452 22.493028 22.567241 22.703146 22.899556 23.149867 23.443796 23.769306 24.114236 24.467435 24.819423 25.162668 25.491607 22.255145 22.113438 21.971133 21.828176 21.684515 21.540095 21.394860 21.248757 21.101732 20.953732 20.804707 20.654612 20.503405 20.351053 20.197532 20.042831 19.886953 19.729924 19.571793 19.412641 19.252585 19.091783 18.930438 18.768798 18.607151 18.445811 18.285103 18.125334 17.966788 17.809716 17.654358 17.500977 17.349894 17.201507 17.056274 16.914643 16.776908 16.643044 16.512584 16.384641 16.258118 16.132013 16.005683 15.879009 15.752633 15.628478 15.510695 15.407055 15.330617 15.301226 15.345341 15.490286 15.750547 16.116474 16.559387 17.046322 17.549541 18.048697 18.530322 18.986991 19.415885 19.816792 20.190508 20.538100 20.860681 21.159312 21.434884 21.688004 21.918939 22.127619 22.313690 22.476560 22.615401 22.729083 22.816059 22.874271 22.901188 22.894170 22.851253 22.772290 22.660055 22.520729 22.363350 22.198394 22.036408 21.888213 21.767506 21.693026 21.685604 21.761242 21.925948 22.174886 22.494805 22.867788 23.274762 23.697983 24.122397 24.536156 24.930622 25.300086 22.101838 21.960917 21.819384 21.677182 21.534252 21.390530 21.245956 21.100464 20.953991 20.806473 20.657848 20.508054 20.357036 20.204741 20.051126 19.896159 19.739824 19.582123 19.423086 19.262779 19.101310 18.938842 18.775604 18.611893 18.448077 18.284578 18.121837 17.960271 17.800225 17.641965 17.485713 17.331729 17.180415 17.032381 16.888463 16.749637 16.616798 16.490407 16.370179 16.255066 16.143607 16.034447 15.926675 15.819831 15.713912 15.609780 15.510086 15.420757 15.353034 15.325757 15.366053 15.503525 15.754826 16.110525 16.540879 17.012278 17.496992 17.974821 18.432713 18.864629 19.270001 19.650706 20.008805 20.345754 20.662378 20.958982 21.235422 21.491151 21.725284 21.936717 22.124262 22.286768 22.423122 22.532098 22.612011 22.660225 22.672736 22.644200 22.568966 22.443329 22.268335 22.051476 21.805923 21.547767 21.293335 21.059154 20.865739 20.740933 20.715302 20.811008 21.033318 21.369692 21.795197 22.280045 22.795611 23.317653 23.827328 24.311059 24.759970 25.169188 21.958009 21.818237 21.677862 21.536822 21.395052 21.252484 21.109050 20.964677 20.819294 20.672826 20.525198 20.376337 20.226169 20.074626 19.921643 19.767167 19.611155 19.453582 19.294450 19.133796 18.971706 18.808331 18.643906 18.478774 18.313395 18.148342 17.984251 17.821724 17.661209 17.502941 17.347012 17.193565 17.043031 16.896287 16.754705 16.620047 16.494152 16.378373 16.273024 16.177340 16.090009 16.009835 15.936093 15.868396 15.806541 15.750752 15.702441 15.665470 15.647868 15.663476 15.731843 15.873450 16.099860 16.406031 16.772937 17.176827 17.596105 18.013756 18.418217 18.803983 19.170491 19.519415 19.852521 20.170868 20.474705 20.763531 21.036134 21.290644 21.524666 21.735544 21.920708 22.078022 22.205960 22.303504 22.369619 22.402246 22.396931 22.345676 22.237391 22.061603 21.815014 21.506396 21.155178 20.785482 20.421596 20.088480 19.816415 19.644248 19.613875 19.755163 20.071112 20.535602 21.105027 21.733140 22.380267 23.016041 23.618799 24.174251 24.674336 25.116186 21.823426 21.685166 21.546334 21.406863 21.266685 21.125731 20.983924 20.841190 20.697447 20.552614 20.406606 20.259338 20.110724 19.960677 19.809116 19.655962 19.501149 19.344620 19.186344 19.026319 18.864592 18.701276 18.536583 18.370864 18.204651 18.038688 17.873890 17.711177 17.551174 17.393986 17.239324 17.086966 16.937280 16.791527 16.651869 16.521137 16.402333 16.297928 16.209238 16.136397 16.078885 16.036138 16.007818 15.993714 15.993511 16.006762 16.033192 16.073368 16.129664 16.207207 16.314011 16.459219 16.649412 16.885187 17.160648 17.465696 17.788887 18.119584 18.449489 18.773572 19.089841 19.398117 19.698773 19.992004 20.277466 20.554035 20.819576 21.070791 21.303279 21.511943 21.691706 21.838329 21.949025 22.022666 22.059391 22.059387 22.020536 21.935243 21.788509 21.561877 21.245732 20.850697 20.404647 19.940333 19.488318 19.079054 18.749518 18.548153 18.530210 18.737192 19.170336 19.785712 20.516902 21.300091 22.085363 22.836984 23.530438 24.150472 24.690148 25.149694 21.697771 21.561378 21.424463 21.286961 21.148802 21.009914 20.870219 20.729638 20.588088 20.445480 20.301724 20.156725 20.010387 19.862613 19.713304 19.562364 19.409703 19.255241 19.098912 18.940678 18.780543 18.618571 18.454925 18.289920 18.124097 17.958312 17.793759 17.631761 17.473178 17.317806 17.164546 17.012435 16.861676 16.714140 16.573262 16.443484 16.329394 16.234846 16.162374 16.113175 16.087575 16.085588 16.107247 16.152545 16.221046 16.311397 16.420999 16.545913 16.681048 16.820894 16.961305 17.101982 17.247593 17.405702 17.582847 17.781831 18.001435 18.237716 18.485736 18.740984 19.000104 19.260980 19.522467 19.783984 20.045036 20.304581 20.560276 20.807753 21.040262 21.249062 21.424691 21.558627 21.644606 21.679360 21.662895 21.597907 21.487510 21.330825 21.118296 20.833093 20.464681 20.024080 19.540986 19.049176 18.579630 18.163919 17.841340 17.664011 17.692494 17.973396 18.508054 19.245851 20.110347 21.027572 21.938075 22.796912 23.571586 24.242329 24.802645 25.257580 21.580640 21.446451 21.311813 21.176663 21.040930 20.904544 20.767427 20.629500 20.490678 20.350871 20.209985 20.067923 19.924581 19.779856 19.633638 19.485821 19.336300 19.184975 19.031764 18.876605 18.719474 18.560408 18.399541 18.237156 18.073774 17.910260 17.747883 17.588081 17.431649 17.277790 17.124322 16.969257 16.812509 16.656836 16.507753 16.372416 16.257974 16.170134 16.112461 16.086514 16.092548 16.130366 16.199918 16.301296 16.433994 16.595719 16.781437 16.982827 17.187767 17.380483 17.544781 17.671797 17.766825 17.846803 17.930721 18.032282 18.158030 18.308641 18.481076 18.670592 18.872327 19.082400 19.298503 19.519986 19.747400 19.981475 20.221594 20.464021 20.700447 20.917817 21.100145 21.231497 21.298249 21.290595 21.204427 21.042895 20.815926 20.536707 20.215992 19.858103 19.464068 19.039948 18.600347 18.165680 17.760427 17.414967 17.168729 17.071048 17.174787 17.519009 18.108207 18.906371 19.850569 20.868790 21.890512 22.851701 23.700927 24.407525 24.965583 25.389447 21.471546 21.339874 21.207847 21.075404 20.942477 20.808999 20.674896 20.540090 20.404498 20.268033 20.130602 19.992107 19.852445 19.711508 19.569185 19.425362 19.279927 19.132772 18.983804 18.832953 18.680187 18.525542 18.369152 18.211305 18.052508 17.893547 17.735457 17.579185 17.424820 17.270750 17.113789 16.950705 16.780654 16.607452 16.440032 16.290241 16.169333 16.085291 16.041943 16.039682 16.076982 16.151944 16.263347 16.410752 16.593282 16.807477 17.045840 17.296543 17.542894 17.762872 17.932721 18.038287 18.086510 18.102111 18.113113 18.140541 18.195904 18.282414 18.397220 18.533908 18.685024 18.844297 19.008276 19.177099 19.354236 19.545061 19.754314 19.982789 20.224070 20.462799 20.676062 20.837108 20.918786 20.897409 20.758857 20.504314 20.152066 19.735000 19.293918 18.864860 18.464761 18.090283 17.732720 17.392317 17.082788 16.830215 16.670794 16.647537 16.803929 17.173781 17.770535 18.581351 19.567331 20.666341 21.796787 22.866431 23.791881 24.524123 25.060812 25.433884 21.369925 21.241052 21.111936 20.982519 20.852739 20.722533 20.591833 20.460567 20.328656 20.196019 20.062568 19.928209 19.792841 19.656360 19.518653 19.379604 19.239095 19.097010 18.953243 18.807706 18.660347 18.511172 18.360275 18.207875 18.054344 17.900197 17.745964 17.591844 17.437095 17.279384 17.114593 16.937884 16.746933 16.546668 16.351183 16.179547 16.048819 15.969234 15.943302 15.967988 16.037933 16.148023 16.294659 16.475659 16.688621 16.928350 17.185222 17.445166 17.689831 17.897165 18.045583 18.123715 18.139313 18.116752 18.085433 18.069917 18.085447 18.136927 18.220068 18.324369 18.437186 18.547750 18.650359 18.746314 18.844237 18.958319 19.104391 19.294347 19.530287 19.800288 20.077387 20.321575 20.484303 20.518113 20.392164 20.104969 19.685297 19.184703 18.667282 18.191518 17.785334 17.440008 17.133028 16.851826 16.601130 16.400385 16.279197 16.273125 16.419481 16.752649 17.298838 18.069528 19.052053 20.198279 21.418346 22.589946 23.591619 24.352071 24.874891 25.212664 21.275146 21.149317 21.023369 20.897252 20.770910 20.644287 20.517323 20.389951 20.262104 20.133708 20.004681 19.874939 19.744388 19.612925 19.480443 19.346822 19.211935 19.075650 18.937831 18.798342 18.657060 18.513882 18.368739 18.221603 18.072478 17.921339 17.767992 17.611791 17.451204 17.283300 17.103439 16.906106 16.688614 16.457600 16.232379 16.039527 15.902462 15.833172 15.830706 15.886143 15.988835 16.129981 16.303395 16.504618 16.729086 16.970000 17.216959 17.455777 17.669179 17.838735 17.949161 17.994631 17.983343 17.936315 17.881144 17.844552 17.845577 17.890243 17.970135 18.066374 18.156559 18.221338 18.249651 18.242754 18.216355 18.199225 18.227171 18.333190 18.536641 18.834884 19.199386 19.576215 19.891654 20.068181 20.052954 19.840535 19.468386 18.996837 18.492735 18.013794 17.591084 17.224944 16.900943 16.608516 16.348980 16.135168 15.988425 15.935839 16.008489 16.240665 16.668872 17.326474 18.227403 19.339935 20.570596 21.779858 22.828543 23.634368 24.196896 24.568559 21.186522 21.063937 20.941369 20.818774 20.696105 20.573313 20.450347 20.327152 20.203668 20.079833 19.955578 19.830827 19.705497 19.579494 19.452713 19.325034 19.196321 19.066415 18.935135 18.802271 18.667582 18.530781 18.391531 18.249417 18.103902 17.954254 17.799413 17.637796 17.467046 17.283795 17.083776 16.863069 16.621620 16.368592 16.125466 15.922304 15.786830 15.731872 15.752074 15.832452 15.957971 16.117334 16.302697 16.508065 16.727525 16.953713 17.176774 17.383994 17.560348 17.690520 17.762960 17.774956 17.735672 17.665227 17.591071 17.542849 17.544238 17.602136 17.701268 17.810267 17.892593 17.915059 17.854869 17.707803 17.496044 17.270029 17.099322 17.053369 17.179381 17.486413 17.940725 18.471131 18.981247 19.370971 19.568899 19.556513 19.361267 19.032902 18.626287 18.190663 17.760692 17.353377 16.973644 16.623329 16.307385 16.036037 15.824628 15.693045 15.665909 15.774091 16.056658 16.558102 17.309977 18.294909 19.425103 20.567923 21.597945 22.438873 23.076048 23.538239 21.103328 20.984140 20.865111 20.746204 20.627379 20.508596 20.389815 20.270991 20.152076 20.033021 19.913770 19.794262 19.674427 19.554183 19.433435 19.312067 19.189936 19.066867 18.942637 18.816963 18.689482 18.559721 18.427069 18.290722 18.149629 18.002413 17.847292 17.682003 17.503789 17.309572 17.096574 16.863788 16.614613 16.360056 16.120551 15.923510 15.794376 15.744661 15.768321 15.849959 15.974126 16.128899 16.305509 16.496891 16.696365 16.896641 17.089064 17.263026 17.405844 17.504019 17.547159 17.533861 17.474933 17.391401 17.310788 17.263331 17.274100 17.349645 17.469997 17.595029 17.675655 17.661003 17.506192 17.188125 16.727830 16.203992 15.740298 15.466703 15.473064 15.778652 16.331694 17.032527 17.762614 18.410427 18.893583 19.171156 19.239947 19.122841 18.859281 18.496444 18.078988 17.641598 17.207834 16.793561 16.411327 16.073542 15.794279 15.590418 15.482969 15.498968 15.672968 16.043630 16.637630 17.441796 18.388690 19.377604 20.312746 21.130043 21.804136 22.340147 21.024811 20.909127 20.793743 20.678629 20.563754 20.449087 20.334595 20.220246 20.106006 19.991837 19.877699 19.763549 19.649332 19.534987 19.420435 19.305574 19.190275 19.074363 18.957604 18.839683 18.720169 18.598484 18.473845 18.345209 18.211206 18.070079 17.919664 17.757438 17.580744 17.387266 17.175902 16.948097 16.709506 16.471463 16.251199 16.069354 15.944065 15.884189 15.887132 15.942883 16.039545 16.166363 16.314206 16.475013 16.641216 16.805440 16.960130 17.096820 17.205492 17.275264 17.297889 17.273422 17.213208 17.137379 17.070612 17.038141 17.059216 17.137498 17.254940 17.373848 17.441506 17.392184 17.152519 16.664885 15.934416 15.068653 14.262862 13.730877 13.619397 13.951592 14.638185 15.536561 16.503157 17.418160 18.192130 18.764654 19.101359 19.195782 19.073714 18.786579 18.392910 17.942956 17.473962 17.012399 16.578048 16.187564 15.856992 15.603505 15.446744 15.409685 15.518008 15.795557 16.253771 16.878442 17.624819 18.428393 19.224317 19.962978 20.616140 21.175034 20.950214 20.838093 20.726408 20.615136 20.504252 20.393733 20.283554 20.173693 20.064127 19.954833 19.845787 19.736960 19.628322 19.519832 19.411438 19.303068 19.194622 19.085959 18.976878 18.867095 18.756207 18.643651 18.528647 18.410130 18.286680 18.156457 18.017189 17.866268 17.701059 17.519523 17.321202 17.108420 16.887334 16.668297 16.465030 16.292327 16.162651 16.082992 16.053785 16.070294 16.125049 16.209706 16.315820 16.434945 16.558778 16.679690 16.790950 16.886018 16.957759 16.999066 17.005420 16.978358 16.927132 16.867131 16.816537 16.792500 16.806414 16.858624 16.934589 17.003441 17.016721 16.905686 16.583344 15.970051 15.057184 13.968562 12.946497 12.263510 12.107432 12.498790 13.312878 14.373656 15.521878 16.634009 17.617498 18.401507 18.933127 19.186604 19.178194 18.961795 18.603793 18.162581 17.682765 17.197364 16.731715 16.306803 15.941603 15.654563 15.464302 15.389390 15.446746 15.648082 15.994659 16.472551 17.051985 17.692519 18.351817 18.993738 19.592887 20.135322 20.878789 20.770246 20.662267 20.554831 20.447919 20.341513 20.235593 20.130146 20.025157 19.920614 19.816505 19.712820 19.609545 19.506667 19.404162 19.301997 19.200116 19.098438 18.996833 18.895105 18.792965 18.689985 18.585550 18.478786 18.368468 18.252926 18.129953 17.996791 17.850316 17.687638 17.507267 17.310652 17.103323 16.894751 16.696796 16.521404 16.378385 16.273876 16.209851 16.184629 16.193899 16.231681 16.290910 16.363769 16.442201 16.518826 16.587544 16.643104 16.680537 16.695589 16.686173 16.653956 16.604978 16.548732 16.496032 16.456227 16.434051 16.426474 16.419980 16.388276 16.289945 16.066863 15.649481 14.982220 14.074786 13.046991 12.116211 11.524070 11.436709 11.873457 12.723540 13.824601 15.023989 16.198852 17.253980 18.115141 18.727527 19.063902 19.135196 18.986437 18.677252 18.264262 17.794118 17.303668 16.822449 16.375236 15.983911 15.668491 15.447242 15.335874 15.345889 15.482370 15.741858 16.111260 16.568718 17.086623 17.635911 18.190202 18.728618 19.236886 20.809813 20.704826 20.600517 20.496867 20.393858 20.291472 20.189694 20.088511 19.987914 19.887897 19.788455 19.689587 19.591297 19.493588 19.396462 19.299921 19.203956 19.108547 19.013647 18.919173 18.824979 18.730832 18.636364 18.541005 18.443886 18.343689 18.238446 18.125284 18.000254 17.858613 17.696189 17.512030 17.310759 17.102228 16.898596 16.711272 16.549129 16.417861 16.320010 16.255348 16.221415 16.214032 16.227701 16.255976 16.292002 16.329220 16.361878 16.385030 16.394421 16.386760 16.360378 16.315846 16.256078 16.185680 16.109595 16.031271 15.950618 15.861990 15.752417 15.600301 15.375114 15.039829 14.559900 13.922903 13.165671 12.391334 11.755451 11.419027 11.488700 11.977522 12.811381 13.869112 15.022050 16.155343 17.174756 18.008035 18.606873 18.950907 19.049875 18.938386 18.664064 18.275952 17.817992 17.327324 16.835166 16.368449 15.951245 15.605465 15.350520 15.201937 15.169346 15.254770 15.452063 15.747782 16.123147 16.556517 17.025922 17.511229 17.995649 18.466484 20.742600 20.641119 20.540414 20.440465 20.341249 20.242749 20.144945 20.047823 19.951369 19.855577 19.760440 19.665959 19.572139 19.478990 19.386526 19.294765 19.203728 19.113432 19.023887 18.935090 18.847008 18.759554 18.672558 18.585702 18.498425 18.409747 18.317990 18.220336 18.112272 17.987354 17.838484 17.661859 17.461310 17.247817 17.034627 16.833218 16.651939 16.496100 16.368422 16.269479 16.198083 16.151569 16.126044 16.116630 16.117794 16.123757 16.128863 16.127831 16.115969 16.089472 16.045786 15.983857 15.904059 15.807696 15.696068 15.569278 15.424931 15.257000 15.055098 14.804584 14.488204 14.090396 13.605496 13.049646 12.472413 11.959629 11.619233 11.550549 11.810629 12.396353 13.249890 14.278890 15.378057 16.445170 17.391766 18.150747 18.681734 18.973175 19.039467 18.913132 18.635178 18.247358 17.787909 17.290305 16.783805 16.294746 15.847868 15.467027 15.174593 14.989014 14.921095 14.971264 15.130028 15.381208 15.705667 16.083989 16.498027 16.931770 17.371835 17.807671 20.676512 20.578465 20.481277 20.384922 20.289371 20.194597 20.100575 20.007278 19.914685 19.822777 19.731535 19.640949 19.551010 19.461717 19.373072 19.285084 19.197765 19.111131 19.025194 18.939959 18.855411 18.771490 18.688063 18.604859 18.521363 18.436641 18.349040 18.255727 18.152116 18.031609 17.886833 17.713524 17.514779 17.300618 17.083276 16.873347 16.678585 16.504120 16.352998 16.226632 16.125116 16.047384 15.991254 15.953418 15.929482 15.914136 15.901457 15.885320 15.859845 15.819857 15.761296 15.681476 15.579073 15.453728 15.305343 15.133206 14.935175 14.707141 14.443017 14.135588 13.778671 13.371020 12.922142 12.459277 12.033135 11.717687 11.597695 11.742143 12.177262 12.879934 13.790600 14.828601 15.902639 16.919503 17.795082 18.466952 18.903395 19.104888 19.096957 18.917544 18.606248 18.199159 17.727708 17.219272 16.698407 16.188350 15.712613 15.296279 14.965857 14.745713 14.650653 14.679737 14.817975 15.044010 15.336597 15.677228 16.050427 16.443392 16.845651 17.248836 20.610955 20.516264 20.422500 20.329626 20.237604 20.146395 20.055958 19.966254 19.877240 19.788876 19.701123 19.613943 19.527297 19.441153 19.355477 19.270237 19.185402 19.100934 19.016790 18.932905 18.849181 18.765462 18.681486 18.596824 18.510770 18.422173 18.329197 18.229011 18.117542 17.989649 17.840341 17.667225 17.472726 17.263833 17.049565 16.838440 16.637271 16.451037 16.283213 16.136172 16.011475 15.909936 15.831419 15.774412 15.735622 15.709859 15.690386 15.669600 15.639794 15.593857 15.525911 15.431843 15.309525 15.158505 14.979250 14.772315 14.537719 14.274696 13.981941 13.658536 13.305772 12.930027 12.546625 12.184254 11.888737 11.723092 11.757493 12.044504 12.593503 13.369504 14.311369 15.345258 16.388234 17.351427 18.151960 18.732076 19.070982 19.182493 19.102790 18.874315 18.535011 18.115711 17.641542 17.133994 16.612741 16.097324 15.608971 15.172467 14.816879 14.571726 14.456035 14.467888 14.587450 14.789436 15.051631 15.356796 15.691757 16.046204 16.411889 16.782168 20.545387 20.453972 20.363540 20.274043 20.185427 20.097638 20.010616 19.924298 19.838619 19.753508 19.668893 19.584697 19.500839 19.417236 19.333798 19.250428 19.167018 19.083445 18.999565 18.915193 18.830092 18.743938 18.656281 18.566476 18.473600 18.376332 18.272825 18.160608 18.036630 17.897639 17.741031 17.566045 17.374628 17.171325 16.962187 16.753430 16.550497 16.357765 16.178742 16.016495 15.874007 15.754255 15.659749 15.591435 15.547350 15.521991 15.506955 15.492358 15.468127 15.424873 15.354701 15.252216 15.115276 14.944666 14.742926 14.513256 14.258934 13.983167 13.689258 13.381223 13.065076 12.750889 12.455477 12.205208 12.037940 12.001720 12.146172 12.505064 13.079939 13.839382 14.730748 15.689444 16.641397 17.505868 18.208006 18.699422 18.968865 19.035290 18.933769 18.702275 18.373796 17.974640 17.525935 17.045752 16.550989 16.059030 15.589416 15.165401 14.814219 14.563188 14.429932 14.413482 14.496810 14.657530 14.875692 15.135846 15.426362 15.738305 16.064598 16.399511 20.479300 20.391092 20.303915 20.217707 20.132401 20.047921 19.964186 19.881106 19.798585 19.716519 19.634793 19.553285 19.471861 19.390375 19.308668 19.226563 19.143862 19.060340 18.975732 18.889726 18.801938 18.711889 18.618971 18.522400 18.421164 18.313974 18.199232 18.075063 17.939457 17.790594 17.627330 17.449741 17.259486 17.059772 16.854872 16.649341 16.447280 16.252069 16.066693 15.894340 15.738972 15.605644 15.500040 15.426503 15.384875 15.368706 15.366782 15.366227 15.354554 15.320383 15.254056 15.149113 15.003792 14.820684 14.604921 14.362792 14.101246 13.827697 13.549775 13.275216 13.012462 12.772267 12.569813 12.426419 12.369761 12.431374 12.640253 13.013457 13.548342 14.221272 14.991912 15.808190 16.609851 17.333481 17.922849 18.342002 18.581488 18.653626 18.582756 18.396564 18.120783 17.777373 17.384914 16.959907 16.518202 16.076322 15.652566 15.267581 14.943546 14.700830 14.552372 14.499405 14.532580 14.637323 14.798806 15.004294 15.243517 15.508273 15.791925 16.089014 20.412213 20.327155 20.243176 20.160201 20.078144 19.996909 19.916391 19.836473 19.757026 19.677905 19.598955 19.520001 19.440852 19.361297 19.281102 19.200008 19.117725 19.033924 18.948232 18.860223 18.769397 18.675170 18.576850 18.473620 18.364515 18.248428 18.124123 17.990316 17.845806 17.689691 17.521638 17.342140 17.152707 16.955881 16.755007 16.553675 16.355037 16.161605 15.975759 15.800502 15.640178 15.501082 15.391297 15.318205 15.283359 15.279186 15.291724 15.305640 15.306806 15.282726 15.222935 15.120503 14.973728 14.786026 14.564281 14.317476 14.056141 13.791949 13.536690 13.300784 13.092856 12.921432 12.797417 12.735418 12.753163 12.869031 13.097977 13.446794 13.910470 14.471055 15.099020 15.755954 16.398069 16.981045 17.466584 17.828881 18.057686 18.156563 18.138201 18.019545 17.818302 17.551222 17.233759 16.880570 16.506329 16.126486 15.757704 15.417650 15.123829 14.891366 14.730316 14.643930 14.629021 14.678130 14.782041 14.931557 15.118343 15.335142 15.575721 15.834730 20.343656 20.261706 20.180891 20.101120 20.022292 19.944291 19.866987 19.790236 19.713876 19.637725 19.561584 19.485229 19.408412 19.330859 19.252264 19.172289 19.090560 19.006660 18.920125 18.830439 18.737027 18.639248 18.536392 18.427680 18.312270 18.189283 18.057845 17.917159 17.766614 17.605920 17.435256 17.255416 17.067903 16.874941 16.679320 16.484013 16.291707 16.104701 15.925357 15.756757 15.603358 15.471491 15.369069 15.303128 15.275104 15.277840 15.297925 15.320183 15.330160 15.314773 15.262932 15.167018 15.024571 14.838800 14.617608 14.372156 14.115899 13.863883 13.631094 13.429427 13.266109 13.146008 13.075097 13.061832 13.116341 13.248415 13.464979 13.767602 14.150676 14.600736 15.097028 15.613135 16.119461 16.586482 16.988387 17.306262 17.529730 17.656607 17.691075 17.641348 17.517666 17.331010 17.092608 16.814070 16.507854 16.187678 15.868513 15.565943 15.294954 15.068402 14.895592 14.781468 14.726715 14.728634 14.782361 14.881971 15.021258 15.194185 15.395112 15.618888 20.273150 20.194281 20.116615 20.040050 19.964468 19.889738 19.815707 19.742206 19.669045 19.596007 19.522853 19.449315 19.375092 19.299854 19.223231 19.144816 19.064162 18.980778 18.894127 18.803628 18.708655 18.608542 18.502592 18.390090 18.270327 18.142634 18.006437 17.861316 17.707091 17.543912 17.372347 17.193461 17.008855 16.820642 16.631324 16.443573 16.260014 16.083210 15.915913 15.761454 15.624100 15.509138 15.422248 15.367654 15.345482 15.350247 15.371809 15.397622 15.414347 15.408598 15.367811 15.282232 15.147759 14.967703 14.751812 14.513659 14.268581 14.032557 13.820585 13.643864 13.508302 13.416609 13.371514 13.377131 13.438458 13.560048 13.744495 13.991094 14.294920 14.646486 15.032055 15.434530 15.834838 16.213660 16.553278 16.839208 17.061264 17.213839 17.295486 17.308020 17.255510 17.143421 16.978181 16.767333 16.520187 16.248434 15.966008 15.687965 15.428888 15.201439 15.015386 14.877164 14.789911 14.753898 14.767157 14.826161 14.926431 15.063018 15.230861 15.425031 20.200191 20.124383 20.049866 19.976528 19.904240 19.832857 19.762210 19.692109 19.622339 19.552658 19.482792 19.412435 19.341245 19.268841 19.194801 19.118661 19.039911 18.957997 18.872322 18.782253 18.687121 18.586241 18.478925 18.364507 18.242375 18.112016 17.973066 17.825374 17.669063 17.504602 17.332863 17.155163 16.973268 16.789356 16.605927 16.425678 16.251395 16.085938 15.932310 15.793792 15.673997 15.576691 15.505210 15.461420 15.444547 15.450524 15.472213 15.500113 15.522902 15.527611 15.500151 15.427802 15.304265 15.133579 14.928300 14.704324 14.477405 14.261948 14.070199 13.911072 13.789663 13.708382 13.668754 13.672473 13.721415 13.817059 13.959746 14.148029 14.378279 14.644572 14.938845 15.251230 15.570485 15.884474 16.180763 16.447386 16.673749 16.851463 16.974860 17.041021 17.049313 17.000667 16.896980 16.741287 16.539126 16.300270 16.038787 15.770897 15.512328 15.276652 15.074609 14.913952 14.799529 14.733510 14.715740 14.744178 14.815395 14.925065 15.068407 15.240548 20.124239 20.051471 19.980104 19.910022 19.841090 19.773153 19.706032 19.639523 19.573394 19.507384 19.441195 19.374493 19.306903 19.238008 19.167343 19.094395 19.018605 18.939363 18.856018 18.767881 18.674237 18.574363 18.467551 18.353138 18.230548 18.099336 17.959250 17.810285 17.652752 17.487335 17.315135 17.137704 16.957035 16.775525 16.595892 16.421069 16.254096 16.098030 15.955886 15.830592 15.724898 15.641179 15.581069 15.544970 15.531567 15.537529 15.557471 15.584026 15.607786 15.617052 15.598072 15.537570 15.428596 15.275334 15.090847 14.890819 14.689597 14.499145 14.328926 14.185790 14.074060 13.996088 13.953061 13.945615 13.974060 14.038288 14.137578 14.270454 14.434682 14.627425 14.845419 15.084962 15.341495 15.608759 15.877997 16.137930 16.375896 16.579751 16.739600 16.848649 16.903028 16.900821 16.840925 16.722839 16.548734 16.326884 16.072256 15.802887 15.536021 15.286398 15.065930 14.883748 14.746224 14.656986 14.617029 14.625019 14.677795 14.770970 14.899532 15.058331 20.044705 19.974940 19.906714 19.839910 19.774391 19.709999 19.646551 19.583839 19.521623 19.459630 19.397551 19.335036 19.271689 19.207068 19.140679 19.071973 19.000349 18.925148 18.845663 18.761143 18.670810 18.573870 18.469549 18.357121 18.235960 18.105588 17.965742 17.816439 17.658050 17.491361 17.317632 17.138624 16.956606 16.774314 16.594860 16.421596 16.257938 16.107165 15.972241 15.855658 15.759322 15.684433 15.631351 15.599413 15.586755 15.590160 15.604952 15.624889 15.641998 15.646504 15.627410 15.574758 15.483629 15.357045 15.204612 15.038477 14.870172 14.709376 14.563676 14.438633 14.337970 14.263880 14.217409 14.198798 14.207708 14.243335 14.304507 14.389867 14.498221 14.629064 14.783125 14.962480 15.169523 15.404310 15.661212 15.927405 16.185025 16.415663 16.604258 16.7