# vtk DataFile Version 3.0
vtk output
ASCII
DATASET STRUCTURED_POINTS
DIMENSIONS 50 50 50
SPACING 0.020408 0.020408 0.020408
ORIGIN 0.000000 0.000000 0.000000
POINT_DATA 125000
SCALARS RTData float
LOOKUP_TABLE default
-0.000000 0.005290 0.010960 0.017005 0.023422 0.030204 0.037345 0.044835 0.052665 0.060827 0.069308 0.078097 0.087183 0.096553 0.106194 0.116095 0.126241 0.136621 0.147221 0.158029 0.169033 0.180220 0.191579 0.203097 0.214764 0.226568 0.238499 0.250546 0.262699 0.274949 0.287287 0.299703 0.312188 0.324735 0.337335 0.349981 0.362666 0.375382 0.388122 0.400882 0.413653 0.426431 0.439210 0.451984 0.464749 0.477501 0.490234 0.502944 0.515628 0.528282 -0.004761 0.000544 0.006231 0.012295 0.018734 0.025539 0.032705 0.040222 0.048082 0.056274 0.064788 0.073611 0.082734 0.092141 0.101822 0.111764 0.121953 0.132376 0.143022 0.153876 0.164928 0.176163 0.187571 0.199140 0.210857 0.222713 0.234696 0.246796 0.259003 0.271307 0.283698 0.296168 0.308707 0.321308 0.333963 0.346663 0.359401 0.372171 0.384965 0.397777 0.410601 0.423431 0.436262 0.449088 0.461904 0.474705 0.487487 0.500246 0.512978 0.525679 -0.009276 -0.003957 0.001746 0.007829 0.014286 0.021113 0.028301 0.035843 0.043730 0.051950 0.060493 0.069348 0.078503 0.087945 0.097662 0.107641 0.117869 0.128332 0.139019 0.149916 0.161011 0.172291 0.183745 0.195360 0.207125 0.219029 0.231060 0.243210 0.255466 0.267820 0.280262 0.292782 0.305373 0.318025 0.330731 0.343482 0.356272 0.369092 0.381937 0.394800 0.407674 0.420554 0.433433 0.446308 0.459172 0.472021 0.484851 0.497656 0.510434 0.523180 -0.013546 -0.008213 -0.002495 0.003604 0.010080 0.016926 0.024135 0.031699 0.039609 0.047854 0.056424 0.065308 0.074492 0.083965 0.093714 0.103726 0.113989 0.124489 0.135213 0.146149 0.157283 0.168604 0.180100 0.191758 0.203567 0.215515 0.227592 0.239787 0.252090 0.264491 0.276980 0.289548 0.302186 0.314886 0.327640 0.340440 0.353277 0.366146 0.379039 0.391949 0.404871 0.417798 0.430724 0.443645 0.456555 0.469450 0.482324 0.495174 0.507996 0.520785 -0.017572 -0.012226 -0.006494 -0.000380 0.006112 0.012976 0.020204 0.027788 0.035719 0.043986 0.052580 0.061488 0.070699 0.080199 0.089977 0.100019 0.110313 0.120845 0.131603 0.142574 0.153745 0.165103 0.176637 0.188334 0.200183 0.212172 0.224291 0.236528 0.248874 0.261319 0.273852 0.286464 0.299148 0.311893 0.324692 0.337536 0.350419 0.363333 0.376271 0.389227 0.402193 0.415165 0.428136 0.441101 0.454054 0.466992 0.479909 0.492801 0.505665 0.518495 -0.021357 -0.015998 -0.010253 -0.004125 0.002382 0.009261 0.016506 0.024107 0.032057 0.040344 0.048958 0.057888 0.067122 0.076646 0.086449 0.096518 0.106840 0.117401 0.128190 0.139192 0.150395 0.161787 0.173355 0.185088 0.196974 0.209000 0.221157 0.233434 0.245820 0.258304 0.270878 0.283532 0.296257 0.309044 0.321886 0.334773 0.347698 0.360655 0.373635 0.386633 0.399642 0.412656 0.425668 0.438675 0.451670 0.464648 0.477606 0.490538 0.503441 0.516310 -0.024903 -0.019533 -0.013776 -0.007635 -0.001115 0.005778 0.013037 0.020654 0.028620 0.036924 0.045557 0.054505 0.063759 0.073304 0.083130 0.093222 0.103568 0.114155 0.124970 0.136000 0.147233 0.158655 0.170255 0.182020 0.193938 0.205999 0.218191 0.230504 0.242926 0.255448 0.268059 0.280752 0.293515 0.306342 0.319222 0.332149 0.345114 0.358111 0.371131 0.384169 0.397217 0.410271 0.423323 0.436368 0.449402 0.462420 0.475415 0.488385 0.501325 0.514232 -0.028216 -0.022835 -0.017066 -0.010914 -0.004382 0.002523 0.009795 0.017426 0.025405 0.033724 0.042372 0.051337 0.060607 0.070171 0.080016 0.090128 0.100496 0.111105 0.121944 0.132998 0.144257 0.155706 0.167333 0.179128 0.191076 0.203168 0.215392 0.227737 0.240193 0.252749 0.265395 0.278123 0.290922 0.303785 0.316702 0.329665 0.342668 0.355701 0.368759 0.381834 0.394919 0.408010 0.421099 0.434182 0.447252 0.460306 0.473338 0.486343 0.499319 0.512260 -0.031299 -0.025908 -0.020129 -0.013966 -0.007424 -0.000508 0.006775 0.014417 0.022408 0.030740 0.039400 0.048379 0.057664 0.067243 0.077104 0.087234 0.097620 0.108249 0.119108 0.130184 0.141465 0.152938 0.164591 0.176411 0.188387 0.200506 0.212759 0.225134 0.237620 0.250207 0.262885 0.275645 0.288477 0.301373 0.314324 0.327322 0.340358 0.353427 0.366519 0.379629 0.392749 0.405874 0.418998 0.432115 0.445220 0.458308 0.471373 0.484412 0.497421 0.510395 -0.034158 -0.028758 -0.022970 -0.016798 -0.010246 -0.003320 0.003972 0.011624 0.019625 0.027967 0.036638 0.045628 0.054925 0.064517 0.074392 0.084536 0.094938 0.105583 0.116460 0.127555 0.138856 0.150350 0.162025 0.173868 0.185868 0.198012 0.210291 0.222693 0.235206 0.247822 0.260529 0.273319 0.286181 0.299108 0.312090 0.325119 0.338187 0.351287 0.364412 0.377554 0.390706 0.403864 0.417020 0.430169 0.443306 0.456426 0.469523 0.482593 0.495633 0.508638 -0.036800 -0.031390 -0.025594 -0.019413 -0.012853 -0.005920 0.001381 0.009040 0.017050 0.025400 0.034080 0.043080 0.052387 0.061989 0.071875 0.082032 0.092447 0.103106 0.113998 0.125109 0.136427 0.147940 0.159633 0.171497 0.183518 0.195685 0.207987 0.220413 0.232951 0.245592 0.258326 0.271142 0.284033 0.296987 0.309998 0.323056 0.336153 0.349283 0.362437 0.375609 0.388792 0.401979 0.415165 0.428344 0.441511 0.454660 0.467787 0.480887 0.493955 0.506989 -0.039229 -0.033811 -0.028007 -0.021819 -0.015252 -0.008311 -0.001004 0.006662 0.014678 0.023035 0.031722 0.040729 0.050044 0.059655 0.069551 0.079717 0.090143 0.100814 0.111719 0.122844 0.134177 0.145705 0.157415 0.169297 0.181336 0.193523 0.205846 0.218293 0.230854 0.243518 0.256275 0.269116 0.282031 0.295012 0.308048 0.321133 0.334257 0.347414 0.360595 0.373794 0.387005 0.400220 0.413434 0.426640 0.439835 0.453011 0.466165 0.479292 0.492388 0.505448 -0.041452 -0.036027 -0.030215 -0.024021 -0.017447 -0.010501 -0.003189 0.004483 0.012504 0.020866 0.029559 0.038572 0.047893 0.057511 0.067414 0.077589 0.088023 0.098704 0.109619 0.120756 0.132101 0.143643 0.155368 0.167265 0.179321 0.191525 0.203866 0.216332 0.228913 0.241598 0.254376 0.267239 0.280177 0.293181 0.306241 0.319349 0.332498 0.345679 0.358886 0.372110 0.385346 0.398586 0.411826 0.425058 0.438278 0.451479 0.464659 0.477811 0.490931 0.504016 -0.043475 -0.038043 -0.032225 -0.026025 -0.019446 -0.012495 -0.005178 0.002497 0.010523 0.018889 0.027586 0.036603 0.045929 0.055553 0.065461 0.075642 0.086083 0.096772 0.107696 0.118843 0.130198 0.141751 0.153489 0.165399 0.177470 0.189689 0.202046 0.214529 0.227127 0.239830 0.252628 0.265511 0.278469 0.291493 0.304575 0.317705 0.330876 0.344080 0.357309 0.370556 0.383815 0.397079 0.410341 0.423597 0.436840 0.450065 0.463267 0.476442 0.489586 0.502693 -0.045305 -0.039866 -0.034043 -0.027837 -0.021254 -0.014299 -0.006979 0.000700 0.008729 0.017098 0.025798 0.034819 0.044148 0.053775 0.063688 0.073874 0.084321 0.095016 0.105947 0.117101 0.128466 0.140028 0.151776 0.163698 0.175781 0.188013 0.200384 0.212882 0.225496 0.238215 0.251030 0.263930 0.276907 0.289950 0.303050 0.316200 0.329391 0.342615 0.355864 0.369133 0.382412 0.395697 0.408981 0.422257 0.435521 0.448768 0.461991 0.475187 0.488352 0.501480 -0.046946 -0.041502 -0.035674 -0.029464 -0.022877 -0.015919 -0.008595 -0.000914 0.007117 0.015488 0.024191 0.033213 0.042545 0.052175 0.062090 0.072280 0.082731 0.093432 0.104368 0.115529 0.126900 0.138471 0.150228 0.162159 0.174252 0.186496 0.198879 0.211390 0.224017 0.236751 0.249581 0.262497 0.275489 0.288549 0.301666 0.314833 0.328042 0.341284 0.354552 0.367839 0.381137 0.394441 0.407744 0.421040 0.434323 0.447588 0.460831 0.474046 0.487229 0.500376 -0.048406 -0.042957 -0.037124 -0.030910 -0.024320 -0.017359 -0.010034 -0.002350 0.005682 0.014055 0.022758 0.031782 0.041116 0.050747 0.060665 0.070857 0.081312 0.092016 0.102957 0.114122 0.125500 0.137077 0.148841 0.160781 0.172883 0.185137 0.197530 0.210052 0.222691 0.235437 0.248280 0.261209 0.274216 0.287290 0.300422 0.313605 0.326829 0.340088 0.353372 0.366675 0.379990 0.393311 0.406631 0.419944 0.433244 0.446526 0.459786 0.473018 0.486218 0.499382 -0.049689 -0.044236 -0.038399 -0.032182 -0.025589 -0.018626 -0.011299 -0.003614 0.004419 0.012793 0.021497 0.030522 0.039856 0.049489 0.059408 0.069602 0.080059 0.090766 0.101710 0.112880 0.124262 0.135845 0.147615 0.159561 0.171671 0.183932 0.196334 0.208866 0.221515 0.234272 0.247126 0.260067 0.273086 0.286172 0.299318 0.312514 0.325753 0.339025 0.352324 0.365641 0.378971 0.392307 0.405641 0.418969 0.432285 0.445582 0.458857 0.472104 0.485319 0.498498 -0.050800 -0.045343 -0.039503 -0.033283 -0.026688 -0.019723 -0.012395 -0.004709 0.003325 0.011699 0.020403 0.029428 0.038763 0.048396 0.058316 0.068512 0.078970 0.089679 0.100626 0.111798 0.123184 0.134771 0.146546 0.158498 0.170614 0.182882 0.195292 0.207831 0.220489 0.233255 0.246118 0.259070 0.272099 0.285196 0.298353 0.311561 0.324811 0.338096 0.351407 0.364737 0.378080 0.391428 0.404776 0.418117 0.431445 0.444756 0.458044 0.471304 0.484532 0.497724 -0.051744 -0.046283 -0.040440 -0.034219 -0.027622 -0.020656 -0.013326 -0.005640 0.002394 0.010768 0.019473 0.028498 0.037832 0.047466 0.057386 0.067582 0.078042 0.088752 0.099701 0.110876 0.122265 0.133855 0.145634 0.157590 0.169711 0.181985 0.194400 0.206946 0.219611 0.232385 0.245256 0.258216 0.271254 0.284361 0.297527 0.310745 0.324005 0.337300 0.350621 0.363963 0.377316 0.390675 0.404034 0.417386 0.430726 0.444048 0.457347 0.470618 0.483858 0.497061 -0.052525 -0.047061 -0.041216 -0.034992 -0.028394 -0.021427 -0.014097 -0.006411 0.001624 0.009998 0.018702 0.027727 0.037062 0.046695 0.056616 0.066812 0.077272 0.087983 0.098933 0.110110 0.121501 0.133094 0.144876 0.156835 0.168960 0.181239 0.193659 0.206210 0.218881 0.231661 0.244539 0.257506 0.270551 0.283665 0.296840 0.310065 0.323334 0.336637 0.349967 0.363317 0.376680 0.390048 0.403416 0.416777 0.430126 0.443458 0.456766 0.470047 0.483295 0.496507 -0.053145 -0.047679 -0.041832 -0.035607 -0.029008 -0.022040 -0.014709 -0.007023 0.001011 0.009385 0.018090 0.027114 0.036448 0.046082 0.056002 0.066199 0.076659 0.087371 0.098322 0.109500 0.120892 0.132487 0.144271 0.156234 0.168361 0.180643 0.193068 0.205623 0.218298 0.231083 0.243966 0.256938 0.269989 0.283109 0.296290 0.309522 0.322797 0.336107 0.349444 0.362801 0.376171 0.389546 0.402922 0.416290 0.429647 0.442985 0.456301 0.469589 0.482845 0.496065 -0.053608 -0.048140 -0.042292 -0.036066 -0.029466 -0.022498 -0.015167 -0.007480 0.000554 0.008928 0.017632 0.026656 0.035990 0.045623 0.055544 0.065740 0.076200 0.086913 0.097864 0.109043 0.120437 0.132033 0.143819 0.155783 0.167913 0.180198 0.192625 0.205183 0.217861 0.230650 0.243537 0.256513 0.269568 0.282693 0.295878 0.309115 0.322395 0.335710 0.349052 0.362414 0.375789 0.389170 0.402551 0.415925 0.429287 0.442631 0.455952 0.469246 0.482508 0.495733 -0.053915 -0.048446 -0.042597 -0.036370 -0.029770 -0.022801 -0.015470 -0.007784 0.000250 0.008624 0.017328 0.026352 0.035686 0.045318 0.055239 0.065435 0.075896 0.086608 0.097560 0.108739 0.120134 0.131731 0.143518 0.155483 0.167615 0.179901 0.192330 0.204890 0.217571 0.230361 0.243251 0.256229 0.269287 0.282415 0.295603 0.308843 0.322126 0.335445 0.348791 0.362156 0.375535 0.388919 0.402304 0.415682 0.429047 0.442395 0.455720 0.469017 0.482283 0.495511 -0.054068 -0.048599 -0.042750 -0.036522 -0.029922 -0.022953 -0.015622 -0.007935 0.000099 0.008472 0.017176 0.026200 0.035533 0.045166 0.055086 0.065283 0.075743 0.086456 0.097408 0.108588 0.119982 0.131580 0.143367 0.155333 0.167466 0.179752 0.192182 0.204743 0.217425 0.230217 0.243108 0.256088 0.269147 0.282276 0.295466 0.308707 0.321992 0.335312 0.348660 0.362027 0.375408 0.388794 0.402180 0.415560 0.428927 0.442277 0.455604 0.468903 0.482170 0.495401 -0.054068 -0.048599 -0.042750 -0.036522 -0.029922 -0.022953 -0.015622 -0.007935 0.000099 0.008472 0.017176 0.026200 0.035533 0.045166 0.055086 0.065283 0.075743 0.086456 0.097408 0.108588 0.119982 0.131580 0.143367 0.155333 0.167466 0.179752 0.192182 0.204743 0.217425 0.230217 0.243108 0.256088 0.269147 0.282276 0.295466 0.308707 0.321992 0.335312 0.348660 0.362027 0.375408 0.388794 0.402180 0.415560 0.428927 0.442277 0.455604 0.468903 0.482170 0.495401 -0.053915 -0.048446 -0.042597 -0.036370 -0.029770 -0.022801 -0.015470 -0.007784 0.000250 0.008624 0.017328 0.026352 0.035686 0.045318 0.055239 0.065435 0.075896 0.086608 0.097560 0.108739 0.120134 0.131731 0.143518 0.155483 0.167615 0.179901 0.192330 0.204890 0.217571 0.230361 0.243251 0.256229 0.269287 0.282415 0.295603 0.308843 0.322126 0.335445 0.348791 0.362156 0.375535 0.388919 0.402304 0.415682 0.429047 0.442395 0.455720 0.469017 0.482283 0.495511 -0.053608 -0.048140 -0.042292 -0.036066 -0.029466 -0.022498 -0.015167 -0.007480 0.000554 0.008928 0.017632 0.026656 0.035990 0.045623 0.055544 0.065740 0.076200 0.086913 0.097864 0.109043 0.120437 0.132033 0.143819 0.155783 0.167913 0.180198 0.192625 0.205183 0.217861 0.230650 0.243537 0.256513 0.269568 0.282693 0.295878 0.309115 0.322395 0.335710 0.349052 0.362414 0.375789 0.389170 0.402551 0.415925 0.429287 0.442631 0.455952 0.469246 0.482508 0.495733 -0.053145 -0.047679 -0.041832 -0.035607 -0.029008 -0.022040 -0.014709 -0.007023 0.001011 0.009385 0.018090 0.027114 0.036448 0.046082 0.056002 0.066199 0.076659 0.087371 0.098322 0.109500 0.120892 0.132487 0.144271 0.156234 0.168361 0.180643 0.193068 0.205623 0.218298 0.231083 0.243966 0.256938 0.269989 0.283109 0.296290 0.309522 0.322797 0.336107 0.349444 0.362801 0.376171 0.389546 0.402922 0.416290 0.429647 0.442985 0.456301 0.469589 0.482845 0.496065 -0.052525 -0.047061 -0.041216 -0.034992 -0.028394 -0.021427 -0.014097 -0.006411 0.001624 0.009998 0.018702 0.027727 0.037062 0.046695 0.056616 0.066812 0.077272 0.087983 0.098933 0.110110 0.121501 0.133094 0.144876 0.156835 0.168960 0.181239 0.193659 0.206210 0.218881 0.231661 0.244539 0.257506 0.270551 0.283665 0.296840 0.310065 0.323334 0.336637 0.349967 0.363317 0.376680 0.390048 0.403416 0.416777 0.430126 0.443458 0.456766 0.470047 0.483295 0.496507 -0.051744 -0.046283 -0.040440 -0.034219 -0.027622 -0.020656 -0.013326 -0.005640 0.002394 0.010768 0.019473 0.028498 0.037832 0.047466 0.057386 0.067582 0.078042 0.088752 0.099701 0.110876 0.122265 0.133855 0.145634 0.157590 0.169711 0.181985 0.194400 0.206946 0.219611 0.232385 0.245256 0.258216 0.271254 0.284361 0.297527 0.310745 0.324005 0.337300 0.350621 0.363963 0.377316 0.390675 0.404034 0.417386 0.430726 0.444048 0.457347 0.470618 0.483858 0.497061 -0.050800 -0.045343 -0.039503 -0.033283 -0.026688 -0.019723 -0.012395 -0.004709 0.003325 0.011699 0.020403 0.029428 0.038763 0.048396 0.058316 0.068512 0.078970 0.089679 0.100626 0.111798 0.123184 0.134771 0.146546 0.158498 0.170614 0.182882 0.195292 0.207831 0.220489 0.233255 0.246118 0.259070 0.272099 0.285196 0.298353 0.311561 0.324811 0.338096 0.351407 0.364737 0.378080 0.391428 0.404776 0.418117 0.431445 0.444756 0.458044 0.471304 0.484532 0.497724 -0.049689 -0.044236 -0.038399 -0.032182 -0.025589 -0.018626 -0.011299 -0.003614 0.004419 0.012793 0.021497 0.030522 0.039856 0.049489 0.059408 0.069602 0.080059 0.090766 0.101710 0.112880 0.124262 0.135845 0.147615 0.159561 0.171671 0.183932 0.196334 0.208866 0.221515 0.234272 0.247126 0.260067 0.273086 0.286172 0.299318 0.312514 0.325753 0.339025 0.352324 0.365641 0.378971 0.392307 0.405641 0.418969 0.432285 0.445582 0.458857 0.472104 0.485319 0.498498 -0.048406 -0.042957 -0.037124 -0.030910 -0.024320 -0.017359 -0.010034 -0.002350 0.005682 0.014055 0.022758 0.031782 0.041116 0.050747 0.060665 0.070857 0.081312 0.092016 0.102957 0.114122 0.125500 0.137077 0.148841 0.160781 0.172883 0.185137 0.197530 0.210052 0.222691 0.235437 0.248280 0.261209 0.274216 0.287290 0.300422 0.313605 0.326829 0.340088 0.353372 0.366675 0.379990 0.393311 0.406631 0.419944 0.433244 0.446526 0.459786 0.473018 0.486218 0.499382 -0.046946 -0.041502 -0.035674 -0.029464 -0.022877 -0.015919 -0.008595 -0.000914 0.007117 0.015488 0.024191 0.033213 0.042545 0.052175 0.062090 0.072280 0.082731 0.093432 0.104368 0.115529 0.126900 0.138471 0.150228 0.162159 0.174252 0.186496 0.198879 0.211390 0.224017 0.236751 0.249581 0.262497 0.275489 0.288549 0.301666 0.314833 0.328042 0.341284 0.354552 0.367839 0.381137 0.394441 0.407744 0.421040 0.434323 0.447588 0.460831 0.474046 0.487229 0.500376 -0.045305 -0.039866 -0.034043 -0.027837 -0.021254 -0.014299 -0.006979 0.000700 0.008729 0.017098 0.025798 0.034819 0.044148 0.053775 0.063688 0.073874 0.084321 0.095016 0.105947 0.117101 0.128466 0.140028 0.151776 0.163698 0.175781 0.188013 0.200384 0.212882 0.225496 0.238215 0.251030 0.263930 0.276907 0.289950 0.303050 0.316200 0.329391 0.342615 0.355864 0.369133 0.382412 0.395697 0.408981 0.422257 0.435521 0.448768 0.461991 0.475187 0.488352 0.501480 -0.043475 -0.038043 -0.032225 -0.026025 -0.019446 -0.012495 -0.005178 0.002497 0.010523 0.018889 0.027586 0.036603 0.045929 0.055553 0.065461 0.075642 0.086083 0.096772 0.107696 0.118843 0.130198 0.141751 0.153489 0.165399 0.177470 0.189689 0.202046 0.214529 0.227127 0.239830 0.252628 0.265511 0.278469 0.291493 0.304575 0.317705 0.330876 0.344080 0.357309 0.370556 0.383815 0.397079 0.410341 0.423597 0.436840 0.450065 0.463267 0.476442 0.489586 0.502693 -0.041452 -0.036027 -0.030215 -0.024021 -0.017447 -0.010501 -0.003189 0.004483 0.012504 0.020866 0.029559 0.038572 0.047893 0.057511 0.067414 0.077589 0.088023 0.098704 0.109619 0.120756 0.132101 0.143643 0.155368 0.167265 0.179321 0.191525 0.203866 0.216332 0.228913 0.241598 0.254376 0.267239 0.280177 0.293181 0.306241 0.319349 0.332498 0.345679 0.358886 0.372110 0.385346 0.398586 0.411826 0.425058 0.438278 0.451479 0.464659 0.477811 0.490931 0.504016 -0.039229 -0.033811 -0.028007 -0.021819 -0.015252 -0.008311 -0.001004 0.006662 0.014678 0.023035 0.031722 0.040729 0.050044 0.059655 0.069551 0.079717 0.090143 0.100814 0.111719 0.122844 0.134177 0.145705 0.157415 0.169297 0.181336 0.193523 0.205846 0.218293 0.230854 0.243518 0.256275 0.269116 0.282031 0.295012 0.308048 0.321133 0.334257 0.347414 0.360595 0.373794 0.387005 0.400220 0.413434 0.426640 0.439835 0.453011 0.466165 0.479292 0.492388 0.505448 -0.036800 -0.031390 -0.025594 -0.019413 -0.012853 -0.005920 0.001381 0.009040 0.017050 0.025400 0.034080 0.043080 0.052387 0.061989 0.071875 0.082032 0.092447 0.103106 0.113998 0.125109 0.136427 0.147940 0.159633 0.171497 0.183518 0.195685 0.207987 0.220413 0.232951 0.245592 0.258326 0.271142 0.284033 0.296987 0.309998 0.323056 0.336153 0.349283 0.362437 0.375609 0.388792 0.401979 0.415165 0.428344 0.441511 0.454660 0.467787 0.480887 0.493955 0.506989 -0.034158 -0.028758 -0.022970 -0.016798 -0.010246 -0.003320 0.003972 0.011624 0.019625 0.027967 0.036638 0.045628 0.054925 0.064517 0.074392 0.084536 0.094938 0.105583 0.116460 0.127555 0.138856 0.150350 0.162025 0.173868 0.185868 0.198012 0.210291 0.222693 0.235206 0.247822 0.260529 0.273319 0.286181 0.299108 0.312090 0.325119 0.338187 0.351287 0.364412 0.377554 0.390706 0.403864 0.417020 0.430169 0.443306 0.456426 0.469523 0.482593 0.495633 0.508638 -0.031299 -0.025908 -0.020129 -0.013966 -0.007424 -0.000508 0.006775 0.014417 0.022408 0.030740 0.039400 0.048379 0.057664 0.067243 0.077104 0.087234 0.097620 0.108249 0.119108 0.130184 0.141465 0.152938 0.164591 0.176411 0.188387 0.200506 0.212759 0.225134 0.237620 0.250207 0.262885 0.275645 0.288477 0.301373 0.314324 0.327322 0.340358 0.353427 0.366519 0.379629 0.392749 0.405874 0.418998 0.432115 0.445220 0.458308 0.471373 0.484412 0.497421 0.510395 -0.028216 -0.022835 -0.017066 -0.010914 -0.004382 0.002523 0.009795 0.017426 0.025405 0.033724 0.042372 0.051337 0.060607 0.070171 0.080016 0.090128 0.100496 0.111105 0.121944 0.132998 0.144257 0.155706 0.167333 0.179128 0.191076 0.203168 0.215392 0.227737 0.240193 0.252749 0.265395 0.278123 0.290922 0.303785 0.316702 0.329665 0.342668 0.355701 0.368759 0.381834 0.394919 0.408010 0.421099 0.434182 0.447252 0.460306 0.473338 0.486343 0.499319 0.512260 -0.024903 -0.019533 -0.013776 -0.007635 -0.001115 0.005778 0.013037 0.020654 0.028620 0.036924 0.045557 0.054505 0.063759 0.073304 0.083130 0.093222 0.103568 0.114155 0.124970 0.136000 0.147233 0.158655 0.170255 0.182020 0.193938 0.205999 0.218191 0.230504 0.242926 0.255448 0.268059 0.280752 0.293515 0.306342 0.319222 0.332149 0.345114 0.358111 0.371131 0.384169 0.397217 0.410271 0.423323 0.436368 0.449402 0.462420 0.475415 0.488385 0.501325 0.514232 -0.021357 -0.015998 -0.010253 -0.004125 0.002382 0.009261 0.016506 0.024107 0.032057 0.040344 0.048958 0.057888 0.067122 0.076646 0.086449 0.096518 0.106840 0.117401 0.128190 0.139192 0.150395 0.161787 0.173355 0.185088 0.196974 0.209000 0.221157 0.233434 0.245820 0.258304 0.270878 0.283532 0.296257 0.309044 0.321886 0.334773 0.347698 0.360655 0.373635 0.386633 0.399642 0.412656 0.425668 0.438675 0.451670 0.464648 0.477606 0.490538 0.503441 0.516310 -0.017572 -0.012226 -0.006494 -0.000380 0.006112 0.012976 0.020204 0.027788 0.035719 0.043986 0.052580 0.061488 0.070699 0.080199 0.089977 0.100019 0.110313 0.120845 0.131603 0.142574 0.153745 0.165103 0.176637 0.188334 0.200183 0.212172 0.224291 0.236528 0.248874 0.261319 0.273852 0.286464 0.299148 0.311893 0.324692 0.337536 0.350419 0.363333 0.376271 0.389227 0.402193 0.415165 0.428136 0.441101 0.454054 0.466992 0.479909 0.492801 0.505665 0.518495 -0.013546 -0.008213 -0.002495 0.003604 0.010080 0.016926 0.024135 0.031699 0.039609 0.047854 0.056424 0.065308 0.074492 0.083965 0.093714 0.103726 0.113989 0.124489 0.135213 0.146149 0.157283 0.168604 0.180100 0.191758 0.203567 0.215515 0.227592 0.239787 0.252090 0.264491 0.276980 0.289548 0.302186 0.314886 0.327640 0.340440 0.353277 0.366146 0.379039 0.391949 0.404871 0.417798 0.430724 0.443645 0.456555 0.469450 0.482324 0.495174 0.507996 0.520785 -0.009276 -0.003957 0.001746 0.007829 0.014286 0.021113 0.028301 0.035843 0.043730 0.051950 0.060493 0.069348 0.078503 0.087945 0.097662 0.107641 0.117869 0.128332 0.139019 0.149916 0.161011 0.172291 0.183745 0.195360 0.207125 0.219029 0.231060 0.243210 0.255466 0.267820 0.280262 0.292782 0.305373 0.318025 0.330731 0.343482 0.356272 0.369092 0.381937 0.394800 0.407674 0.420554 0.433433 0.446308 0.459172 0.472021 0.484851 0.497656 0.510434 0.523180 -0.004761 0.000544 0.006231 0.012295 0.018734 0.025539 0.032705 0.040222 0.048082 0.056274 0.064788 0.073611 0.082734 0.092141 0.101822 0.111764 0.121953 0.132376 0.143022 0.153876 0.164928 0.176163 0.187571 0.199140 0.210857 0.222713 0.234696 0.246796 0.259003 0.271307 0.283698 0.296168 0.308707 0.321308 0.333963 0.346663 0.359401 0.372171 0.384965 0.397777 0.410601 0.423431 0.436262 0.449088 0.461904 0.474705 0.487487 0.500246 0.512978 0.525679 0.000000 0.005290 0.010960 0.017005 0.023422 0.030204 0.037345 0.044835 0.052665 0.060827 0.069308 0.078097 0.087183 0.096553 0.106194 0.116095 0.126241 0.136621 0.147221 0.158029 0.169033 0.180220 0.191579 0.203097 0.214764 0.226568 0.238499 0.250546 0.262699 0.274949 0.287287 0.299703 0.312188 0.324735 0.337335 0.349981 0.362666 0.375382 0.388122 0.400882 0.413653 0.426431 0.439210 0.451984 0.464749 0.477501 0.490234 0.502944 0.515628 0.528282 0.005290 0.010619 0.016327 0.022411 0.028867 0.035687 0.042865 0.050393 0.058262 0.066460 0.074978 0.083805 0.092927 0.102333 0.112011 0.121947 0.132129 0.142543 0.153178 0.164020 0.175058 0.186278 0.197669 0.209219 0.220916 0.232751 0.244711 0.256787 0.268968 0.281245 0.293608 0.306049 0.318558 0.331127 0.343749 0.356416 0.369119 0.381853 0.394610 0.407384 0.420169 0.432958 0.445748 0.458531 0.471304 0.484061 0.496798 0.509511 0.522195 0.534848 0.000544 0.005888 0.011614 0.017717 0.024194 0.031038 0.038242 0.045797 0.053695 0.061925 0.070476 0.079337 0.088496 0.097941 0.107658 0.117635 0.127860 0.138319 0.148999 0.159887 0.170972 0.182241 0.193682 0.205282 0.217031 0.228917 0.240930 0.253059 0.265294 0.277624 0.290042 0.302537 0.315100 0.327724 0.340400 0.353121 0.365878 0.378666 0.391476 0.404303 0.417141 0.429983 0.442824 0.455659 0.468482 0.481289 0.494076 0.506837 0.519570 0.532270 -0.003957 0.001402 0.007144 0.013266 0.019762 0.026628 0.033855 0.041435 0.049359 0.057618 0.066199 0.075091 0.084283 0.093762 0.103516 0.113531 0.123794 0.134293 0.145015 0.155946 0.167075 0.178389 0.189875 0.201522 0.213319 0.225253 0.237315 0.249494 0.261778 0.274159 0.286627 0.299173 0.311788 0.324463 0.337191 0.349962 0.362771 0.375610 0.388471 0.401349 0.414236 0.427128 0.440019 0.452902 0.465774 0.478629 0.491462 0.504271 0.517049 0.529795 -0.008213 -0.002840 0.002917 0.009055 0.015570 0.022455 0.029703 0.037306 0.045255 0.053538 0.062146 0.071067 0.080289 0.089799 0.099585 0.109634 0.119932 0.130468 0.141227 0.152197 0.163366 0.174721 0.186249 0.197940 0.209780 0.221759 0.233867 0.246091 0.258422 0.270850 0.283366 0.295960 0.308622 0.321346 0.334121 0.346942 0.359799 0.372685 0.385595 0.398520 0.411456 0.424395 0.437332 0.450262 0.463180 0.476080 0.488959 0.501811 0.514633 0.527422 -0.012226 -0.006840 -0.001069 0.005085 0.011617 0.018520 0.025787 0.033410 0.041379 0.049685 0.058317 0.067263 0.076511 0.086049 0.095864 0.105943 0.116273 0.126841 0.137635 0.148640 0.159846 0.171238 0.182805 0.194534 0.206415 0.218436 0.230585 0.242852 0.255226 0.267698 0.280258 0.292896 0.305604 0.318372 0.331193 0.344059 0.356961 0.369893 0.382848 0.395819 0.408799 0.421783 0.434765 0.447739 0.460700 0.473643 0.486565 0.499459 0.512324 0.525153 -0.015998 -0.010600 -0.004815 0.001353 0.007899 0.014818 0.022102 0.029743 0.037731 0.046057 0.054710 0.063678 0.072949 0.082511 0.092352 0.102458 0.112816 0.123414 0.134237 0.145275 0.156513 0.167939 0.179540 0.191306 0.203224 0.215282 0.227469 0.239775 0.252190 0.264702 0.277303 0.289983 0.302732 0.315543 0.328406 0.341314 0.354260 0.367234 0.380232 0.393245 0.406268 0.419294 0.432317 0.445333 0.458336 0.471320 0.484282 0.497217 0.510120 0.522989 -0.019533 -0.014123 -0.008326 -0.002145 0.004415 0.011348 0.018647 0.026303 0.034308 0.042651 0.051322 0.060309 0.069601 0.079184 0.089047 0.099176 0.109559 0.120183 0.131034 0.142099 0.153366 0.164823 0.176456 0.188254 0.200205 0.212298 0.224520 0.236863 0.249314 0.261863 0.274502 0.287220 0.300008 0.312858 0.325761 0.338709 0.351694 0.364709 0.377746 0.390799 0.403862 0.416928 0.429991 0.443046 0.456087 0.469110 0.482110 0.495083 0.508024 0.520929 -0.022835 -0.017414 -0.011605 -0.005412 0.001160 0.008105 0.015417 0.023087 0.031106 0.039464 0.048150 0.057154 0.066463 0.076065 0.085947 0.096097 0.106501 0.117147 0.128022 0.139112 0.150405 0.161889 0.173550 0.185378 0.197359 0.209483 0.221737 0.234112 0.246597 0.259181 0.271855 0.284608 0.297432 0.310319 0.323258 0.336243 0.349265 0.362317 0.375392 0.388482 0.401582 0.414685 0.427785 0.440877 0.453955 0.467014 0.480051 0.493059 0.506035 0.518976 -0.025908 -0.020476 -0.014657 -0.008454 -0.001871 0.005085 0.012408 0.020089 0.028120 0.036491 0.045191 0.054208 0.063532 0.073149 0.083048 0.093216 0.103639 0.114304 0.125200 0.136312 0.147628 0.159136 0.170822 0.182676 0.194684 0.206836 0.219120 0.231524 0.244040 0.256655 0.269360 0.282146 0.295004 0.307923 0.320897 0.333916 0.346972 0.360059 0.373168 0.386294 0.399428 0.412566 0.425701 0.438827 0.451940 0.465033 0.478103 0.491145 0.504155 0.517128 -0.028758 -0.023317 -0.017488 -0.011275 -0.004683 0.002283 0.009615 0.017307 0.025348 0.033729 0.042440 0.051469 0.060805 0.070435 0.080348 0.090530 0.100969 0.111652 0.122565 0.133696 0.145032 0.156561 0.168270 0.180147 0.192179 0.204356 0.216666 0.229098 0.241641 0.254284 0.267019 0.279835 0.292722 0.305673 0.318678 0.331728 0.344816 0.357935 0.371077 0.384234 0.397401 0.410571 0.423739 0.436897 0.450042 0.463167 0.476269 0.489342 0.502383 0.515387 -0.031390 -0.025940 -0.020103 -0.013881 -0.007281 -0.000307 0.007034 0.014734 0.022783 0.031173 0.039893 0.048931 0.058277 0.067919 0.077843 0.088038 0.098490 0.109187 0.120115 0.131263 0.142616 0.154163 0.165892 0.177789 0.189843 0.202042 0.214375 0.226831 0.239399 0.252069 0.264830 0.277673 0.290588 0.303567 0.316600 0.329679 0.342797 0.355945 0.369117 0.382304 0.395501 0.408701 0.421899 0.435087 0.448261 0.461417 0.474548 0.487650 0.500720 0.513752 -0.033811 -0.028353 -0.022507 -0.016278 -0.009671 -0.002689 0.004658 0.012365 0.020421 0.028818 0.037545 0.046591 0.055945 0.065595 0.075529 0.085734 0.096197 0.106906 0.117847 0.129008 0.140377 0.151940 0.163685 0.175600 0.187673 0.199892 0.212246 0.224724 0.237314 0.250007 0.262792 0.275660 0.288600 0.301604 0.314664 0.327770 0.340914 0.354089 0.367288 0.380503 0.393728 0.406956 0.420181 0.433397 0.446599 0.459782 0.472940 0.486070 0.499166 0.512226 -0.036027 -0.030561 -0.024708 -0.018472 -0.011858 -0.004871 0.002482 0.010194 0.018256 0.026658 0.035391 0.044443 0.053804 0.063461 0.073402 0.083615 0.094087 0.104806 0.115758 0.126931 0.138312 0.149889 0.161649 0.173579 0.185669 0.197906 0.210278 0.222775 0.235385 0.248099 0.260905 0.273795 0.286758 0.299785 0.312868 0.325999 0.339168 0.352368 0.365591 0.378832 0.392082 0.405335 0.418585 0.431827 0.445055 0.458263 0.471446 0.484601 0.497722 0.510807 -0.038043 -0.032570 -0.026711 -0.020469 -0.013850 -0.006858 0.000500 0.008217 0.016283 0.024689 0.033426 0.042483 0.051849 0.061511 0.071458 0.081678 0.092157 0.102884 0.113845 0.125028 0.136419 0.148008 0.159780 0.171724 0.183828 0.196080 0.208468 0.220982 0.233610 0.246342 0.259168 0.272078 0.285061 0.298110 0.311214 0.324366 0.337557 0.350780 0.364026 0.377289 0.390563 0.403839 0.417113 0.430378 0.443628 0.456860 0.470067 0.483244 0.496389 0.509495 -0.039866 -0.034387 -0.028522 -0.022275 -0.015651 -0.008655 -0.001293 0.006427 0.014496 0.022906 0.031646 0.040706 0.050075 0.059742 0.069693 0.079918 0.090403 0.101136 0.112104 0.123295 0.134696 0.146294 0.158077 0.170032 0.182149 0.194414 0.206816 0.219345 0.231989 0.244737 0.257580 0.270507 0.283509 0.296576 0.309700 0.322871 0.336082 0.349325 0.362592 0.375876 0.389170 0.402468 0.415763 0.429049 0.442321 0.455573 0.468801 0.482000 0.495165 0.508293 -0.041502 -0.036017 -0.030147 -0.023896 -0.017267 -0.010268 -0.002903 0.004819 0.012891 0.021303 0.030045 0.039108 0.048479 0.058148 0.068103 0.078332 0.088821 0.099559 0.1