# vtk DataFile Version 3.0
vtk output
ASCII
DATASET STRUCTURED_POINTS
DIMENSIONS 50 50 50
SPACING 0.020408 0.000000 0.020408
ORIGIN 0.000000 0.000000 0.000000
POINT_DATA 125000
SCALARS RTData float
LOOKUP_TABLE default
0.000000 -0.004083 -0.007998 -0.011744 -0.015321 -0.018727 -0.021963 -0.025026 -0.027918 -0.030637 -0.033185 -0.035560 -0.037764 -0.039796 -0.041656 -0.043346 -0.044865 -0.046214 -0.047394 -0.048404 -0.049245 -0.049917 -0.050421 -0.050757 -0.050925 -0.050925 -0.050757 -0.050421 -0.049917 -0.049245 -0.048404 -0.047394 -0.046214 -0.044865 -0.043346 -0.041656 -0.039796 -0.037764 -0.035560 -0.033185 -0.030637 -0.027918 -0.025026 -0.021963 -0.018727 -0.015321 -0.011744 -0.007998 -0.004083 0.000000 0.000000 -0.004083 -0.007998 -0.011744 -0.015321 -0.018727 -0.021963 -0.025026 -0.027918 -0.030637 -0.033185 -0.035560 -0.037764 -0.039796 -0.041656 -0.043346 -0.044865 -0.046214 -0.047394 -0.048404 -0.049245 -0.049917 -0.050421 -0.050757 -0.050925 -0.050925 -0.050757 -0.050421 -0.049917 -0.049245 -0.048404 -0.047394 -0.046214 -0.044865 -0.043346 -0.041656 -0.039796 -0.037764 -0.035560 -0.033185 -0.030637 -0.027918 -0.025026 -0.021963 -0.018727 -0.015321 -0.011744 -0.007998 -0.004083 0.000000 0.000000 -0.004083 -0.007998 -0.011744 -0.015321 -0.018727 -0.021963 -0.025026 -0.027918 -0.030637 -0.033185 -0.035560 -0.037764 -0.039796 -0.041656 -0.043346 -0.044865 -0.046214 -0.047394 -0.048404 -0.049245 -0.049917 -0.050421 -0.050757 -0.050925 -0.050925 -0.050757 -0.050421 -0.049917 -0.049245 -0.048404 -0.047394 -0.046214 -0.044865 -0.043346 -0.041656 -0.039796 -0.037764 -0.035560 -0.033185 -0.030637 -0.027918 -0.025026 -0.021963 -0.018727 -0.015321 -0.011744 -0.007998 -0.004083 0.000000 0.000000 -0.004083 -0.007998 -0.011744 -0.015321 -0.018727 -0.021963 -0.025026 -0.027918 -0.030637 -0.033185 -0.035560 -0.037764 -0.039796 -0.041656 -0.043346 -0.044865 -0.046214 -0.047394 -0.048404 -0.049245 -0.049917 -0.050421 -0.050757 -0.050925 -0.050925 -0.050757 -0.050421 -0.049917 -0.049245 -0.048404 -0.047394 -0.046214 -0.044865 -0.043346 -0.041656 -0.039796 -0.037764 -0.035560 -0.033185 -0.030637 -0.027918 -0.025026 -0.021963 -0.018727 -0.015321 -0.011744 -0.007998 -0.004083 0.000000 0.000000 -0.004083 -0.007998 -0.011744 -0.015321 -0.018727 -0.021963 -0.025026 -0.027918 -0.030637 -0.033185 -0.035560 -0.037764 -0.039796 -0.041656 -0.043346 -0.044865 -0.046214 -0.047394 -0.048404 -0.049245 -0.049917 -0.050421 -0.050757 -0.050925 -0.050925 -0.050757 -0.050421 -0.049917 -0.049245 -0.048404 -0.047394 -0.046214 -0.044865 -0.043346 -0.041656 -0.039796 -0.037764 -0.035560 -0.033185 -0.030637 -0.027918 -0.025026 -0.021963 -0.018727 -0.015321 -0.011744 -0.007998 -0.004083 0.000000 0.000000 -0.004083 -0.007998 -0.011744 -0.015321 -0.018727 -0.021963 -0.025026 -0.027918 -0.030637 -0.033185 -0.035560 -0.037764 -0.039796 -0.041656 -0.043346 -0.044865 -0.046214 -0.047394 -0.048404 -0.049245 -0.049917 -0.050421 -0.050757 -0.050925 -0.050925 -0.050757 -0.050421 -0.049917 -0.049245 -0.048404 -0.047394 -0.046214 -0.044865 -0.043346 -0.041656 -0.039796 -0.037764 -0.035560 -0.033185 -0.030637 -0.027918 -0.025026 -0.021963 -0.018727 -0.015321 -0.011744 -0.007998 -0.004083 0.000000 0.000000 -0.004083 -0.007998 -0.011744 -0.015321 -0.018727 -0.021963 -0.025026 -0.027918 -0.030637 -0.033185 -0.035560 -0.037764 -0.039796 -0.041656 -0.043346 -0.044865 -0.046214 -0.047394 -0.048404 -0.049245 -0.049917 -0.050421 -0.050757 -0.050925 -0.050925 -0.050757 -0.050421 -0.049917 -0.049245 -0.048404 -0.047394 -0.046214 -0.044865 -0.043346 -0.041656 -0.039796 -0.037764 -0.035560 -0.033185 -0.030637 -0.027918 -0.025026 -0.021963 -0.018727 -0.015321 -0.011744 -0.007998 -0.004083 0.000000 0.000000 -0.004083 -0.007998 -0.011744 -0.015321 -0.018727 -0.021963 -0.025026 -0.027918 -0.030637 -0.033185 -0.035560 -0.037764 -0.039796 -0.041656 -0.043346 -0.044865 -0.046214 -0.047394 -0.048404 -0.049245 -0.049917 -0.050421 -0.050757 -0.050925 -0.050925 -0.050757 -0.050421 -0.049917 -0.049245 -0.048404 -0.047394 -0.046214 -0.044865 -0.043346 -0.041656 -0.039796 -0.037764 -0.035560 -0.033185 -0.030637 -0.027918 -0.025026 -0.021963 -0.018727 -0.015321 -0.011744 -0.007998 -0.004083 0.000000 0.000000 -0.004083 -0.007998 -0.011744 -0.015321 -0.018727 -0.021963 -0.025026 -0.027918 -0.030637 -0.033185 -0.035560 -0.037764 -0.039796 -0.041656 -0.043346 -0.044865 -0.046214 -0.047394 -0.048404 -0.049245 -0.049917 -0.050421 -0.050757 -0.050925 -0.050925 -0.050757 -0.050421 -0.049917 -0.049245 -0.048404 -0.047394 -0.046214 -0.044865 -0.043346 -0.041656 -0.039796 -0.037764 -0.035560 -0.033185 -0.030637 -0.027918 -0.025026 -0.021963 -0.018727 -0.015321 -0.011744 -0.007998 -0.004083 0.000000 0.000000 -0.004083 -0.007998 -0.011744 -0.015321 -0.018727 -0.021963 -0.025026 -0.027918 -0.030637 -0.033185 -0.035560 -0.037764 -0.039796 -0.041656 -0.043346 -0.044865 -0.046214 -0.047394 -0.048404 -0.049245 -0.049917 -0.050421 -0.050757 -0.050925 -0.050925 -0.050757 -0.050421 -0.049917 -0.049245 -0.048404 -0.047394 -0.046214 -0.044865 -0.043346 -0.041656 -0.039796 -0.037764 -0.035560 -0.033185 -0.030637 -0.027918 -0.025026 -0.021963 -0.018727 -0.015321 -0.011744 -0.007998 -0.004083 0.000000 0.000000 -0.004083 -0.007998 -0.011744 -0.015321 -0.018727 -0.021963 -0.025026 -0.027918 -0.030637 -0.033185 -0.035560 -0.037764 -0.039796 -0.041656 -0.043346 -0.044865 -0.046214 -0.047394 -0.048404 -0.049245 -0.049917 -0.050421 -0.050757 -0.050925 -0.050925 -0.050757 -0.050421 -0.049917 -0.049245 -0.048404 -0.047394 -0.046214 -0.044865 -0.043346 -0.041656 -0.039796 -0.037764 -0.035560 -0.033185 -0.030637 -0.027918 -0.025026 -0.021963 -0.018727 -0.015321 -0.011744 -0.007998 -0.004083 0.000000 0.000000 -0.004083 -0.007998 -0.011744 -0.015321 -0.018727 -0.021963 -0.025026 -0.027918 -0.030637 -0.033185 -0.035560 -0.037764 -0.039796 -0.041656 -0.043346 -0.044865 -0.046214 -0.047394 -0.048404 -0.049245 -0.049917 -0.050421 -0.050757 -0.050925 -0.050925 -0.050757 -0.050421 -0.049917 -0.049245 -0.048404 -0.047394 -0.046214 -0.044865 -0.043346 -0.041656 -0.039796 -0.037764 -0.035560 -0.033185 -0.030637 -0.027918 -0.025026 -0.021963 -0.018727 -0.015321 -0.011744 -0.007998 -0.004083 0.000000 0.000000 -0.004083 -0.007998 -0.011744 -0.015321 -0.018727 -0.021963 -0.025026 -0.027918 -0.030637 -0.033185 -0.035560 -0.037764 -0.039796 -0.041656 -0.043346 -0.044865 -0.046214 -0.047394 -0.048404 -0.049245 -0.049917 -0.050421 -0.050757 -0.050925 -0.050925 -0.050757 -0.050421 -0.049917 -0.049245 -0.048404 -0.047394 -0.046214 -0.044865 -0.043346 -0.041656 -0.039796 -0.037764 -0.035560 -0.033185 -0.030637 -0.027918 -0.025026 -0.021963 -0.018727 -0.015321 -0.011744 -0.007998 -0.004083 0.000000 0.000000 -0.004083 -0.007998 -0.011744 -0.015321 -0.018727 -0.021963 -0.025026 -0.027918 -0.030637 -0.033185 -0.035560 -0.037764 -0.039796 -0.041656 -0.043346 -0.044865 -0.046214 -0.047394 -0.048404 -0.049245 -0.049917 -0.050421 -0.050757 -0.050925 -0.050925 -0.050757 -0.050421 -0.049917 -0.049245 -0.048404 -0.047394 -0.046214 -0.044865 -0.043346 -0.041656 -0.039796 -0.037764 -0.035560 -0.033185 -0.030637 -0.027918 -0.025026 -0.021963 -0.018727 -0.015321 -0.011744 -0.007998 -0.004083 0.000000 0.000000 -0.004083 -0.007998 -0.011744 -0.015321 -0.018727 -0.021963 -0.025026 -0.027918 -0.030637 -0.033185 -0.035560 -0.037764 -0.039796 -0.041656 -0.043346 -0.044865 -0.046214 -0.047394 -0.048404 -0.049245 -0.049917 -0.050421 -0.050757 -0.050925 -0.050925 -0.050757 -0.050421 -0.049917 -0.049245 -0.048404 -0.047394 -0.046214 -0.044865 -0.043346 -0.041656 -0.039796 -0.037764 -0.035560 -0.033185 -0.030637 -0.027918 -0.025026 -0.021963 -0.018727 -0.015321 -0.011744 -0.007998 -0.004083 0.000000 0.000000 -0.004083 -0.007998 -0.011744 -0.015321 -0.018727 -0.021963 -0.025026 -0.027918 -0.030637 -0.033185 -0.035560 -0.037764 -0.039796 -0.041656 -0.043346 -0.044865 -0.046214 -0.047394 -0.048404 -0.049245 -0.049917 -0.050421 -0.050757 -0.050925 -0.050925 -0.050757 -0.050421 -0.049917 -0.049245 -0.048404 -0.047394 -0.046214 -0.044865 -0.043346 -0.041656 -0.039796 -0.037764 -0.035560 -0.033185 -0.030637 -0.027918 -0.025026 -0.021963 -0.018727 -0.015321 -0.011744 -0.007998 -0.004083 0.000000 0.000000 -0.004083 -0.007998 -0.011744 -0.015321 -0.018727 -0.021963 -0.025026 -0.027918 -0.030637 -0.033185 -0.035560 -0.037764 -0.039796 -0.041656 -0.043346 -0.044865 -0.046214 -0.047394 -0.048404 -0.049245 -0.049917 -0.050421 -0.050757 -0.050925 -0.050925 -0.050757 -0.050421 -0.049917 -0.049245 -0.048404 -0.047394 -0.046214 -0.044865 -0.043346 -0.041656 -0.039796 -0.037764 -0.035560 -0.033185 -0.030637 -0.027918 -0.025026 -0.021963 -0.018727 -0.015321 -0.011744 -0.007998 -0.004083 0.000000 0.000000 -0.004083 -0.007998 -0.011744 -0.015321 -0.018727 -0.021963 -0.025026 -0.027918 -0.030637 -0.033185 -0.035560 -0.037764 -0.039796 -0.041656 -0.043346 -0.044865 -0.046214 -0.047394 -0.048404 -0.049245 -0.049917 -0.050421 -0.050757 -0.050925 -0.050925 -0.050757 -0.050421 -0.049917 -0.049245 -0.048404 -0.047394 -0.046214 -0.044865 -0.043346 -0.041656 -0.039796 -0.037764 -0.035560 -0.033185 -0.030637 -0.027918 -0.025026 -0.021963 -0.018727 -0.015321 -0.011744 -0.007998 -0.004083 0.000000 0.000000 -0.004083 -0.007998 -0.011744 -0.015321 -0.018727 -0.021963 -0.025026 -0.027918 -0.030637 -0.033185 -0.035560 -0.037764 -0.039796 -0.041656 -0.043346 -0.044865 -0.046214 -0.047394 -0.048404 -0.049245 -0.049917 -0.050421 -0.050757 -0.050925 -0.050925 -0.050757 -0.050421 -0.049917 -0.049245 -0.048404 -0.047394 -0.046214 -0.044865 -0.043346 -0.041656 -0.039796 -0.037764 -0.035560 -0.033185 -0.030637 -0.027918 -0.025026 -0.021963 -0.018727 -0.015321 -0.011744 -0.007998 -0.004083 0.000000 0.000000 -0.004083 -0.007998 -0.011744 -0.015321 -0.018727 -0.021963 -0.025026 -0.027918 -0.030637 -0.033185 -0.035560 -0.037764 -0.039796 -0.041656 -0.043346 -0.044865 -0.046214 -0.047394 -0.048404 -0.049245 -0.049917 -0.050421 -0.050757 -0.050925 -0.050925 -0.050757 -0.050421 -0.049917 -0.049245 -0.048404 -0.047394 -0.046214 -0.044865 -0.043346 -0.041656 -0.039796 -0.037764 -0.035560 -0.033185 -0.030637 -0.027918 -0.025026 -0.021963 -0.018727 -0.015321 -0.011744 -0.007998 -0.004083 0.000000 0.000000 -0.004083 -0.007998 -0.011744 -0.015321 -0.018727 -0.021963 -0.025026 -0.027918 -0.030637 -0.033185 -0.035560 -0.037764 -0.039796 -0.041656 -0.043346 -0.044865 -0.046214 -0.047394 -0.048404 -0.049245 -0.049917 -0.050421 -0.050757 -0.050925 -0.050925 -0.050757 -0.050421 -0.049917 -0.049245 -0.048404 -0.047394 -0.046214 -0.044865 -0.043346 -0.041656 -0.039796 -0.037764 -0.035560 -0.033185 -0.030637 -0.027918 -0.025026 -0.021963 -0.018727 -0.015321 -0.011744 -0.007998 -0.004083 0.000000 0.000000 -0.004083 -0.007998 -0.011744 -0.015321 -0.018727 -0.021963 -0.025026 -0.027918 -0.030637 -0.033185 -0.035560 -0.037764 -0.039796 -0.041656 -0.043346 -0.044865 -0.046214 -0.047394 -0.048404 -0.049245 -0.049917 -0.050421 -0.050757 -0.050925 -0.050925 -0.050757 -0.050421 -0.049917 -0.049245 -0.048404 -0.047394 -0.046214 -0.044865 -0.043346 -0.041656 -0.039796 -0.037764 -0.035560 -0.033185 -0.030637 -0.027918 -0.025026 -0.021963 -0.018727 -0.015321 -0.011744 -0.007998 -0.004083 0.000000 0.000000 -0.004083 -0.007998 -0.011744 -0.015321 -0.018727 -0.021963 -0.025026 -0.027918 -0.030637 -0.033185 -0.035560 -0.037764 -0.039796 -0.041656 -0.043346 -0.044865 -0.046214 -0.047394 -0.048404 -0.049245 -0.049917 -0.050421 -0.050757 -0.050925 -0.050925 -0.050757 -0.050421 -0.049917 -0.049245 -0.048404 -0.047394 -0.046214 -0.044865 -0.043346 -0.041656 -0.039796 -0.037764 -0.035560 -0.033185 -0.030637 -0.027918 -0.025026 -0.021963 -0.018727 -0.015321 -0.011744 -0.007998 -0.004083 0.000000 0.000000 -0.004083 -0.007998 -0.011744 -0.015321 -0.018727 -0.021963 -0.025026 -0.027918 -0.030637 -0.033185 -0.035560 -0.037764 -0.039796 -0.041656 -0.043346 -0.044865 -0.046214 -0.047394 -0.048404 -0.049245 -0.049917 -0.050421 -0.050757 -0.050925 -0.050925 -0.050757 -0.050421 -0.049917 -0.049245 -0.048404 -0.047394 -0.046214 -0.044865 -0.043346 -0.041656 -0.039796 -0.037764 -0.035560 -0.033185 -0.030637 -0.027918 -0.025026 -0.021963 -0.018727 -0.015321 -0.011744 -0.007998 -0.004083 0.000000 0.000000 -0.004083 -0.007998 -0.011744 -0.015321 -0.018727 -0.021963 -0.025026 -0.027918 -0.030637 -0.033185 -0.035560 -0.037764 -0.039796 -0.041656 -0.043346 -0.044865 -0.046214 -0.047394 -0.048404 -0.049245 -0.049917 -0.050421 -0.050757 -0.050925 -0.050925 -0.050757 -0.050421 -0.049917 -0.049245 -0.048404 -0.047394 -0.046214 -0.044865 -0.043346 -0.041656 -0.039796 -0.037764 -0.035560 -0.033185 -0.030637 -0.027918 -0.025026 -0.021963 -0.018727 -0.015321 -0.011744 -0.007998 -0.004083 0.000000 0.000000 -0.004083 -0.007998 -0.011744 -0.015321 -0.018727 -0.021963 -0.025026 -0.027918 -0.030637 -0.033185 -0.035560 -0.037764 -0.039796 -0.041656 -0.043346 -0.044865 -0.046214 -0.047394 -0.048404 -0.049245 -0.049917 -0.050421 -0.050757 -0.050925 -0.050925 -0.050757 -0.050421 -0.049917 -0.049245 -0.048404 -0.047394 -0.046214 -0.044865 -0.043346 -0.041656 -0.039796 -0.037764 -0.035560 -0.033185 -0.030637 -0.027918 -0.025026 -0.021963 -0.018727 -0.015321 -0.011744 -0.007998 -0.004083 0.000000 0.000000 -0.004083 -0.007998 -0.011744 -0.015321 -0.018727 -0.021963 -0.025026 -0.027918 -0.030637 -0.033185 -0.035560 -0.037764 -0.039796 -0.041656 -0.043346 -0.044865 -0.046214 -0.047394 -0.048404 -0.049245 -0.049917 -0.050421 -0.050757 -0.050925 -0.050925 -0.050757 -0.050421 -0.049917 -0.049245 -0.048404 -0.047394 -0.046214 -0.044865 -0.043346 -0.041656 -0.039796 -0.037764 -0.035560 -0.033185 -0.030637 -0.027918 -0.025026 -0.021963 -0.018727 -0.015321 -0.011744 -0.007998 -0.004083 0.000000 0.000000 -0.004083 -0.007998 -0.011744 -0.015321 -0.018727 -0.021963 -0.025026 -0.027918 -0.030637 -0.033185 -0.035560 -0.037764 -0.039796 -0.041656 -0.043346 -0.044865 -0.046214 -0.047394 -0.048404 -0.049245 -0.049917 -0.050421 -0.050757 -0.050925 -0.050925 -0.050757 -0.050421 -0.049917 -0.049245 -0.048404 -0.047394 -0.046214 -0.044865 -0.043346 -0.041656 -0.039796 -0.037764 -0.035560 -0.033185 -0.030637 -0.027918 -0.025026 -0.021963 -0.018727 -0.015321 -0.011744 -0.007998 -0.004083 0.000000 0.000000 -0.004083 -0.007998 -0.011744 -0.015321 -0.018727 -0.021963 -0.025026 -0.027918 -0.030637 -0.033185 -0.035560 -0.037764 -0.039796 -0.041656 -0.043346 -0.044865 -0.046214 -0.047394 -0.048404 -0.049245 -0.049917 -0.050421 -0.050757 -0.050925 -0.050925 -0.050757 -0.050421 -0.049917 -0.049245 -0.048404 -0.047394 -0.046214 -0.044865 -0.043346 -0.041656 -0.039796 -0.037764 -0.035560 -0.033185 -0.030637 -0.027918 -0.025026 -0.021963 -0.018727 -0.015321 -0.011744 -0.007998 -0.004083 0.000000 0.000000 -0.004083 -0.007998 -0.011744 -0.015321 -0.018727 -0.021963 -0.025026 -0.027918 -0.030637 -0.033185 -0.035560 -0.037764 -0.039796 -0.041656 -0.043346 -0.044865 -0.046214 -0.047394 -0.048404 -0.049245 -0.049917 -0.050421 -0.050757 -0.050925 -0.050925 -0.050757 -0.050421 -0.049917 -0.049245 -0.048404 -0.047394 -0.046214 -0.044865 -0.043346 -0.041656 -0.039796 -0.037764 -0.035560 -0.033185 -0.030637 -0.027918 -0.025026 -0.021963 -0.018727 -0.015321 -0.011744 -0.007998 -0.004083 0.000000 0.000000 -0.004083 -0.007998 -0.011744 -0.015321 -0.018727 -0.021963 -0.025026 -0.027918 -0.030637 -0.033185 -0.035560 -0.037764 -0.039796 -0.041656 -0.043346 -0.044865 -0.046214 -0.047394 -0.048404 -0.049245 -0.049917 -0.050421 -0.050757 -0.050925 -0.050925 -0.050757 -0.050421 -0.049917 -0.049245 -0.048404 -0.047394 -0.046214 -0.044865 -0.043346 -0.041656 -0.039796 -0.037764 -0.035560 -0.033185 -0.030637 -0.027918 -0.025026 -0.021963 -0.018727 -0.015321 -0.011744 -0.007998 -0.004083 0.000000 0.000000 -0.004083 -0.007998 -0.011744 -0.015321 -0.018727 -0.021963 -0.025026 -0.027918 -0.030637 -0.033185 -0.035560 -0.037764 -0.039796 -0.041656 -0.043346 -0.044865 -0.046214 -0.047394 -0.048404 -0.049245 -0.049917 -0.050421 -0.050757 -0.050925 -0.050925 -0.050757 -0.050421 -0.049917 -0.049245 -0.048404 -0.047394 -0.046214 -0.044865 -0.043346 -0.041656 -0.039796 -0.037764 -0.035560 -0.033185 -0.030637 -0.027918 -0.025026 -0.021963 -0.018727 -0.015321 -0.011744 -0.007998 -0.004083 0.000000 0.000000 -0.004083 -0.007998 -0.011744 -0.015321 -0.018727 -0.021963 -0.025026 -0.027918 -0.030637 -0.033185 -0.035560 -0.037764 -0.039796 -0.041656 -0.043346 -0.044865 -0.046214 -0.047394 -0.048404 -0.049245 -0.049917 -0.050421 -0.050757 -0.050925 -0.050925 -0.050757 -0.050421 -0.049917 -0.049245 -0.048404 -0.047394 -0.046214 -0.044865 -0.043346 -0.041656 -0.039796 -0.037764 -0.035560 -0.033185 -0.030637 -0.027918 -0.025026 -0.021963 -0.018727 -0.015321 -0.011744 -0.007998 -0.004083 0.000000 0.000000 -0.004083 -0.007998 -0.011744 -0.015321 -0.018727 -0.021963 -0.025026 -0.027918 -0.030637 -0.033185 -0.035560 -0.037764 -0.039796 -0.041656 -0.043346 -0.044865 -0.046214 -0.047394 -0.048404 -0.049245 -0.049917 -0.050421 -0.050757 -0.050925 -0.050925 -0.050757 -0.050421 -0.049917 -0.049245 -0.048404 -0.047394 -0.046214 -0.044865 -0.043346 -0.041656 -0.039796 -0.037764 -0.035560 -0.033185 -0.030637 -0.027918 -0.025026 -0.021963 -0.018727 -0.015321 -0.011744 -0.007998 -0.004083 0.000000 0.000000 -0.004083 -0.007998 -0.011744 -0.015321 -0.018727 -0.021963 -0.025026 -0.027918 -0.030637 -0.033185 -0.035560 -0.037764 -0.039796 -0.041656 -0.043346 -0.044865 -0.046214 -0.047394 -0.048404 -0.049245 -0.049917 -0.050421 -0.050757 -0.050925 -0.050925 -0.050757 -0.050421 -0.049917 -0.049245 -0.048404 -0.047394 -0.046214 -0.044865 -0.043346 -0.041656 -0.039796 -0.037764 -0.035560 -0.033185 -0.030637 -0.027918 -0.025026 -0.021963 -0.018727 -0.015321 -0.011744 -0.007998 -0.004083 0.000000 0.000000 -0.004083 -0.007998 -0.011744 -0.015321 -0.018727 -0.021963 -0.025026 -0.027918 -0.030637 -0.033185 -0.035560 -0.037764 -0.039796 -0.041656 -0.043346 -0.044865 -0.046214 -0.047394 -0.048404 -0.049245 -0.049917 -0.050421 -0.050757 -0.050925 -0.050925 -0.050757 -0.050421 -0.049917 -0.049245 -0.048404 -0.047394 -0.046214 -0.044865 -0.043346 -0.041656 -0.039796 -0.037764 -0.035560 -0.033185 -0.030637 -0.027918 -0.025026 -0.021963 -0.018727 -0.015321 -0.011744 -0.007998 -0.004083 0.000000 0.000000 -0.004083 -0.007998 -0.011744 -0.015321 -0.018727 -0.021963 -0.025026 -0.027918 -0.030637 -0.033185 -0.035560 -0.037764 -0.039796 -0.041656 -0.043346 -0.044865 -0.046214 -0.047394 -0.048404 -0.049245 -0.049917 -0.050421 -0.050757 -0.050925 -0.050925 -0.050757 -0.050421 -0.049917 -0.049245 -0.048404 -0.047394 -0.046214 -0.044865 -0.043346 -0.041656 -0.039796 -0.037764 -0.035560 -0.033185 -0.030637 -0.027918 -0.025026 -0.021963 -0.018727 -0.015321 -0.011744 -0.007998 -0.004083 0.000000 0.000000 -0.004083 -0.007998 -0.011744 -0.015321 -0.018727 -0.021963 -0.025026 -0.027918 -0.030637 -0.033185 -0.035560 -0.037764 -0.039796 -0.041656 -0.043346 -0.044865 -0.046214 -0.047394 -0.048404 -0.049245 -0.049917 -0.050421 -0.050757 -0.050925 -0.050925 -0.050757 -0.050421 -0.049917 -0.049245 -0.048404 -0.047394 -0.046214 -0.044865 -0.043346 -0.041656 -0.039796 -0.037764 -0.035560 -0.033185 -0.030637 -0.027918 -0.025026 -0.021963 -0.018727 -0.015321 -0.011744 -0.007998 -0.004083 0.000000 0.000000 -0.004083 -0.007998 -0.011744 -0.015321 -0.018727 -0.021963 -0.025026 -0.027918 -0.030637 -0.033185 -0.035560 -0.037764 -0.039796 -0.041656 -0.043346 -0.044865 -0.046214 -0.047394 -0.048404 -0.049245 -0.049917 -0.050421 -0.050757 -0.050925 -0.050925 -0.050757 -0.050421 -0.049917 -0.049245 -0.048404 -0.047394 -0.046214 -0.044865 -0.043346 -0.041656 -0.039796 -0.037764 -0.035560 -0.033185 -0.030637 -0.027918 -0.025026 -0.021963 -0.018727 -0.015321 -0.011744 -0.007998 -0.004083 0.000000 0.000000 -0.004083 -0.007998 -0.011744 -0.015321 -0.018727 -0.021963 -0.025026 -0.027918 -0.030637 -0.033185 -0.035560 -0.037764 -0.039796 -0.041656 -0.043346 -0.044865 -0.046214 -0.047394 -0.048404 -0.049245 -0.049917 -0.050421 -0.050757 -0.050925 -0.050925 -0.050757 -0.050421 -0.049917 -0.049245 -0.048404 -0.047394 -0.046214 -0.044865 -0.043346 -0.041656 -0.039796 -0.037764 -0.035560 -0.033185 -0.030637 -0.027918 -0.025026 -0.021963 -0.018727 -0.015321 -0.011744 -0.007998 -0.004083 0.000000 0.000000 -0.004083 -0.007998 -0.011744 -0.015321 -0.018727 -0.021963 -0.025026 -0.027918 -0.030637 -0.033185 -0.035560 -0.037764 -0.039796 -0.041656 -0.043346 -0.044865 -0.046214 -0.047394 -0.048404 -0.049245 -0.049917 -0.050421 -0.050757 -0.050925 -0.050925 -0.050757 -0.050421 -0.049917 -0.049245 -0.048404 -0.047394 -0.046214 -0.044865 -0.043346 -0.041656 -0.039796 -0.037764 -0.035560 -0.033185 -0.030637 -0.027918 -0.025026 -0.021963 -0.018727 -0.015321 -0.011744 -0.007998 -0.004083 0.000000 0.000000 -0.004083 -0.007998 -0.011744 -0.015321 -0.018727 -0.021963 -0.025026 -0.027918 -0.030637 -0.033185 -0.035560 -0.037764 -0.039796 -0.041656 -0.043346 -0.044865 -0.046214 -0.047394 -0.048404 -0.049245 -0.049917 -0.050421 -0.050757 -0.050925 -0.050925 -0.050757 -0.050421 -0.049917 -0.049245 -0.048404 -0.047394 -0.046214 -0.044865 -0.043346 -0.041656 -0.039796 -0.037764 -0.035560 -0.033185 -0.030637 -0.027918 -0.025026 -0.021963 -0.018727 -0.015321 -0.011744 -0.007998 -0.004083 0.000000 0.000000 -0.004083 -0.007998 -0.011744 -0.015321 -0.018727 -0.021963 -0.025026 -0.027918 -0.030637 -0.033185 -0.035560 -0.037764 -0.039796 -0.041656 -0.043346 -0.044865 -0.046214 -0.047394 -0.048404 -0.049245 -0.049917 -0.050421 -0.050757 -0.050925 -0.050925 -0.050757 -0.050421 -0.049917 -0.049245 -0.048404 -0.047394 -0.046214 -0.044865 -0.043346 -0.041656 -0.039796 -0.037764 -0.035560 -0.033185 -0.030637 -0.027918 -0.025026 -0.021963 -0.018727 -0.015321 -0.011744 -0.007998 -0.004083 0.000000 0.000000 -0.004083 -0.007998 -0.011744 -0.015321 -0.018727 -0.021963 -0.025026 -0.027918 -0.030637 -0.033185 -0.035560 -0.037764 -0.039796 -0.041656 -0.043346 -0.044865 -0.046214 -0.047394 -0.048404 -0.049245 -0.049917 -0.050421 -0.050757 -0.050925 -0.050925 -0.050757 -0.050421 -0.049917 -0.049245 -0.048404 -0.047394 -0.046214 -0.044865 -0.043346 -0.041656 -0.039796 -0.037764 -0.035560 -0.033185 -0.030637 -0.027918 -0.025026 -0.021963 -0.018727 -0.015321 -0.011744 -0.007998 -0.004083 0.000000 0.000000 -0.004083 -0.007998 -0.011744 -0.015321 -0.018727 -0.021963 -0.025026 -0.027918 -0.030637 -0.033185 -0.035560 -0.037764 -0.039796 -0.041656 -0.043346 -0.044865 -0.046214 -0.047394 -0.048404 -0.049245 -0.049917 -0.050421 -0.050757 -0.050925 -0.050925 -0.050757 -0.050421 -0.049917 -0.049245 -0.048404 -0.047394 -0.046214 -0.044865 -0.043346 -0.041656 -0.039796 -0.037764 -0.035560 -0.033185 -0.030637 -0.027918 -0.025026 -0.021963 -0.018727 -0.015321 -0.011744 -0.007998 -0.004083 0.000000 0.000000 -0.004083 -0.007998 -0.011744 -0.015321 -0.018727 -0.021963 -0.025026 -0.027918 -0.030637 -0.033185 -0.035560 -0.037764 -0.039796 -0.041656 -0.043346 -0.044865 -0.046214 -0.047394 -0.048404 -0.049245 -0.049917 -0.050421 -0.050757 -0.050925 -0.050925 -0.050757 -0.050421 -0.049917 -0.049245 -0.048404 -0.047394 -0.046214 -0.044865 -0.043346 -0.041656 -0.039796 -0.037764 -0.035560 -0.033185 -0.030637 -0.027918 -0.025026 -0.021963 -0.018727 -0.015321 -0.011744 -0.007998 -0.004083 0.000000 0.000000 -0.004083 -0.007998 -0.011744 -0.015321 -0.018727 -0.021963 -0.025026 -0.027918 -0.030637 -0.033185 -0.035560 -0.037764 -0.039796 -0.041656 -0.043346 -0.044865 -0.046214 -0.047394 -0.048404 -0.049245 -0.049917 -0.050421 -0.050757 -0.050925 -0.050925 -0.050757 -0.050421 -0.049917 -0.049245 -0.048404 -0.047394 -0.046214 -0.044865 -0.043346 -0.041656 -0.039796 -0.037764 -0.035560 -0.033185 -0.030637 -0.027918 -0.025026 -0.021963 -0.018727 -0.015321 -0.011744 -0.007998 -0.004083 0.000000 0.000000 -0.004083 -0.007998 -0.011744 -0.015321 -0.018727 -0.021963 -0.025026 -0.027918 -0.030637 -0.033185 -0.035560 -0.037764 -0.039796 -0.041656 -0.043346 -0.044865 -0.046214 -0.047394 -0.048404 -0.049245 -0.049917 -0.050421 -0.050757 -0.050925 -0.050925 -0.050757 -0.050421 -0.049917 -0.049245 -0.048404 -0.047394 -0.046214 -0.044865 -0.043346 -0.041656 -0.039796 -0.037764 -0.035560 -0.033185 -0.030637 -0.027918 -0.025026 -0.021963 -0.018727 -0.015321 -0.011744 -0.007998 -0.004083 0.000000 0.000000 -0.004083 -0.007998 -0.011744 -0.015321 -0.018727 -0.021963 -0.025026 -0.027918 -0.030637 -0.033185 -0.035560 -0.037764 -0.039796 -0.041656 -0.043346 -0.044865 -0.046214 -0.047394 -0.048404 -0.049245 -0.049917 -0.050421 -0.050757 -0.050925 -0.050925 -0.050757 -0.050421 -0.049917 -0.049245 -0.048404 -0.047394 -0.046214 -0.044865 -0.043346 -0.041656 -0.039796 -0.037764 -0.035560 -0.033185 -0.030637 -0.027918 -0.025026 -0.021963 -0.018727 -0.015321 -0.011744 -0.007998 -0.004083 0.000000 0.000000 -0.004083 -0.007998 -0.011744 -0.015321 -0.018727 -0.021963 -0.025026 -0.027918 -0.030637 -0.033185 -0.035560 -0.037764 -0.039796 -0.041656 -0.043346 -0.044865 -0.046214 -0.047394 -0.048404 -0.049245 -0.049917 -0.050421 -0.050757 -0.050925 -0.050925 -0.050757 -0.050421 -0.049917 -0.049245 -0.048404 -0.047394 -0.046214 -0.044865 -0.043346 -0.041656 -0.039796 -0.037764 -0.035560 -0.033185 -0.030637 -0.027918 -0.025026 -0.021963 -0.018727 -0.015321 -0.011744 -0.007998 -0.004083 0.000000 0.015730 0.011695 0.007826 0.004123 0.000589 -0.002778 -0.005975 -0.009002 -0.011859 -0.014546 -0.017064 -0.019411 -0.021588 -0.023595 -0.025434 -0.027103 -0.028604 -0.029937 -0.031102 -0.032100 -0.032931 -0.033596 -0.034094 -0.034426 -0.034591 -0.034591 -0.034426 -0.034094 -0.033596 -0.032931 -0.032100 -0.031102 -0.029937 -0.028604 -0.027103 -0.025434 -0.023595 -0.021588 -0.019411 -0.017064 -0.014546 -0.011859 -0.009002 -0.005975 -0.002778 0.000589 0.004123 0.007826 0.011695 0.015730 0.015730 0.011695 0.007826 0.004123 0.000589 -0.002778 -0.005975 -0.009002 -0.011859 -0.014546 -0.017064 -0.019411 -0.021588 -0.023595 -0.025434 -0.027103 -0.028604 -0.029937 -0.031102 -0.032100 -0.032931 -0.033596 -0.034094 -0.034426 -0.034591 -0.034591 -0.034426 -0.034094 -0.033596 -0.032931 -0.032100 -0.031102 -0.029937 -0.028604 -0.027103 -0.025434 -0.023595 -0.021588 -0.019411 -0.017064 -0.014546 -0.011859 -0.009002 -0.005975 -0.002778 0.000589 0.004123 0.007826 0.011695 0.015730 0.015730 0.011695 0.007826 0.004123 0.000589 -0.002778 -0.005975 -0.009002 -0.011859 -0.014546 -0.017064 -0.019411 -0.021588 -0.023595 -0.025434 -0.027103 -0.028604 -0.029937 -0.031102 -0.032100 -0.032931 -0.033596 -0.034094 -0.034426 -0.034591 -0.034591 -0.034426 -0.034094 -0.033596 -0.032931 -0.032100 -0.031102 -0.029937 -0.028604 -0.027103 -0.025434 -0.023595 -0.021588 -0.019411 -0.017064 -0.014546 -0.011859 -0.009002 -0.005975 -0.002778 0.000589 0.004123 0.007826 0.011695 0.015730 0.015730 0.011695 0.007826 0.004123 0.000589 -0.002778 -0.005975 -0.009002 -0.011859 -0.014546 -0.017064 -0.019411 -0.021588 -0.023595 -0.025434 -0.027103 -0.028604 -0.029937 -0.031102 -0.032100 -0.032931 -0.033596 -0.034094 -0.034426 -0.034591 -0.034591 -0.034426 -0.034094 -0.033596 -0.032931 -0.032100 -0.031102 -0.029937 -0.028604 -0.027103 -0.025434 -0.023595 -0.021588 -0.019411 -0.017064 -0.014546 -0.011859 -0.009002 -0.005975 -0.002778 0.000589 0.004123 0.007826 0.011695 0.015730 0.015730 0.011695 0.007826 0.004123 0.000589 -0.002778 -0.005975 -0.009002 -0.011859 -0.014546 -0.017064 -0.019411 -0.021588 -0.023595 -0.025434 -0.027103 -0.028604 -0.029937 -0.031102 -0.032100 -0.032931 -0.033596 -0.034094 -0.034426 -0.034591 -0.034591 -0.034426 -0.034094 -0.033596 -0.032931 -0.032100 -0.031102 -0.029937 -0.028604 -0.027103 -0.025434 -0.023595 -0.021588 -0.019411 -0.017064 -0.014546 -0.011859 -0.009002 -0.005975 -0.002778 0.000589 0.004123 0.007826 0.011695 0.015730 0.015730 0.011695 0.007826 0.004123 0.000589 -0.002778 -0.005975 -0.009002 -0.011859 -0.014546 -0.017064 -0.019411 -0.021588 -0.023595 -0.025434 -0.027103 -0.028604 -0.029937 -0.031102 -0.032100 -0.032931 -0.033596 -0.034094 -0.034426 -0.034591 -0.034591 -0.034426 -0.034094 -0.033596 -0.032931 -0.032100 -0.031102 -0.029937 -0.028604 -0.027103 -0.025434 -0.023595 -0.021588 -0.019411 -0.017064 -0.014546 -0.011859 -0.009002 -0.005975 -0.002778 0.000589 0.004123 0.007826 0.011695 0.015730 0.015730 0.011695 0.007826 0.004123 0.000589 -0.002778 -0.005975 -0.009002 -0.011859 -0.014546 -0.017064 -0.019411 -0.021588 -0.023595 -0.025434 -0.027103 -0.028604 -0.029937 -0.031102 -0.032100 -0.032931 -0.033596 -0.034094 -0.034426 -0.034591 -0.034591 -0.034426 -0.034094 -0.033596 -0.032931 -0.032100 -0.031102 -0.029937 -0.028604 -0.027103 -0.025434 -0.023595 -0.021588 -0.019411 -0.017064 -0.014546 -0.011859 -0.009002 -0.005975 -0.002778 0.000589 0.004123 0.007826 0.011695 0.015730 0.015730 0.011695 0.007826 0.004123 0.000589 -0.002778 -0.005975 -0.009002 -0.011859 -0.014546 -0.017064 -0.019411 -0.021588 -0.023595 -0.025434 -0.027103 -0.028604 -0.029937 -0.031102 -0.032100 -0.032931 -0.033596 -0.034094 -0.034426 -0.034591 -0.034591 -0.034426 -0.034094 -0.033596 -0.032931 -0.032100 -0.031102 -0.029937 -0.028604 -0.027103 -0.025434 -0.023595 -0.021588 -0.019411 -0.017064 -0.014546 -0.011859 -0.009002 -0.005975 -0.002778 0.000589 0.004123 0.007826 0.011695 0.015730 0.015730 0.011695 0.007826 0.004123 0.000589 -0.002778 -0.005975 -0.009002 -0.011859 -0.014546 -0.017064 -0.019411 -0.021588 -0.023595 -0.025434 -0.027103 -0.028604 -0.029937 -0.031102 -0.032100 -0.032931 -0.033596 -0.034094 -0.034426 -0.034591 -0.034591 -0.034426 -0.034094 -0.033596 -0.032931 -0.032100 -0.031102 -0.029937 -0.028604 -0.027103 -0.025434 -0.023595 -0.021588 -0.019411 -0.017064 -0.014546 -0.011859 -0.009002 -0.005975 -0.002778 0.000589 0.004123 0.007826 0.011695 0.015730 0.015730 0.011695 0.007826 0.004123 0.000589 -0.002778 -0.005975 -0.009002 -0.011859 -0.014546 -0.017064 -0.019411 -0.021588 -0.023595 -0.025434 -0.027103 -0.028604 -0.029937 -0.031102 -0.032100 -0.032931 -0.033596 -0.034094 -0.034426 -0.034591 -0.034591 -0.034426 -0.034094 -0.033596 -0.032931 -0.032100 -0.031102 -0.029937 -0.028604 -0.027103 -0.025434 -0.023595 -0.021588 -0.019411 -0.017064 -0.014546 -0.011859 -0.009002 -0.005975 -0.002778 0.000589 0.004123 0.007826