# vtk DataFile Version 3.0
vtk output
ASCII
DATASET STRUCTURED_POINTS
DIMENSIONS 50 50 50
SPACING 0.020408 0.020408 0.020408
ORIGIN 0.000000 0.000000 0.000000
POINT_DATA 125000
SCALARS RTData float
LOOKUP_TABLE default
0.000000 0.002310 0.005039 0.008182 0.011735 0.015692 0.020044 0.024782 0.029895 0.035372 0.041199 0.047365 0.053854 0.060653 0.067747 0.075122 0.082762 0.090654 0.098784 0.107137 0.115699 0.124459 0.133403 0.142518 0.151794 0.161219 0.170783 0.180475 0.190285 0.200205 0.210225 0.220338 0.230536 0.240811 0.251157 0.261567 0.272034 0.282553 0.293119 0.303726 0.314369 0.325045 0.335748 0.346474 0.357221 0.367983 0.378759 0.389544 0.400337 0.411134 0.002310 0.004633 0.007374 0.010530 0.014095 0.018063 0.022426 0.027174 0.032298 0.037785 0.043623 0.049798 0.056297 0.063105 0.070208 0.077591 0.085240 0.093140 0.101278 0.109638 0.118209 0.126976 0.135927 0.145049 0.154332 0.163764 0.173333 0.183031 0.192847 0.202772 0.212798 0.222916 0.233119 0.243398 0.253748 0.264161 0.274632 0.285154 0.295723 0.306332 0.316977 0.327654 0.338359 0.349086 0.359833 0.370596 0.381371 0.392156 0.402947 0.413743 0.005039 0.007374 0.010127 0.013293 0.016867 0.020844 0.025215 0.029971 0.035102 0.040595 0.046437 0.052617 0.059120 0.065932 0.073038 0.080424 0.088075 0.095978 0.104117 0.112479 0.121051 0.129819 0.138771 0.147895 0.157178 0.166610 0.176180 0.185878 0.195694 0.205619 0.215645 0.225762 0.235964 0.246243 0.256591 0.267004 0.277473 0.287994 0.298560 0.309167 0.319811 0.330485 0.341186 0.351911 0.362654 0.373413 0.384185 0.394965 0.405752 0.416542 0.008182 0.010530 0.013293 0.016468 0.020050 0.024033 0.028410 0.033169 0.038302 0.043797 0.049640 0.055820 0.062321 0.069131 0.076235 0.083618 0.091266 0.099164 0.107299 0.115657 0.124224 0.132987 0.141934 0.151052 0.160330 0.169756 0.179321 0.189013 0.198824 0.208743 0.218763 0.228875 0.239071 0.249343 0.259686 0.270092 0.280555 0.291070 0.301630 0.312231 0.322867 0.333535 0.344229 0.354946 0.365682 0.376434 0.387198 0.397970 0.408749 0.419531 0.011735 0.014095 0.016867 0.020050 0.023638 0.027626 0.032004 0.036764 0.041896 0.047388 0.053227 0.059401 0.065897 0.072699 0.079795 0.087169 0.094808 0.102696 0.110821 0.119168 0.127724 0.136476 0.145412 0.154519 0.163786 0.173201 0.182754 0.192435 0.202234 0.212142 0.222151 0.232252 0.242437 0.252698 0.263030 0.273425 0.283878 0.294381 0.304930 0.315520 0.326146 0.336802 0.347486 0.358192 0.368917 0.379657 0.390409 0.401170 0.411937 0.422707 0.015692 0.018063 0.020844 0.024033 0.027626 0.031614 0.035992 0.040749 0.045876 0.051361 0.057192 0.063357 0.069841 0.076631 0.083713 0.091073 0.098697 0.106570 0.114678 0.123009 0.131548 0.140284 0.149202 0.158292 0.167541 0.176940 0.186476 0.196140 0.205923 0.215814 0.225806 0.235891 0.246059 0.256305 0.266621 0.277001 0.287437 0.297925 0.308459 0.319034 0.329644 0.340286 0.350954 0.361645 0.372355 0.383080 0.393817 0.404563 0.415315 0.426070 0.020044 0.022426 0.025215 0.028410 0.032004 0.035992 0.040366 0.045117 0.050236 0.055710 0.061529 0.067679 0.074147 0.080920 0.087984 0.095324 0.102927 0.110779 0.118866 0.127174 0.135691 0.144404 0.153300 0.162367 0.171594 0.180969 0.190483 0.200125 0.209885 0.219755 0.229725 0.239788 0.249936 0.260161 0.270456 0.280815 0.291232 0.301700 0.312214 0.322769 0.333360 0.343983 0.354632 0.365304 0.375995 0.386702 0.397420 0.408148 0.418881 0.429617 0.024782 0.027174 0.029971 0.033169 0.036764 0.040749 0.045117 0.049860 0.054966 0.060427 0.066229 0.072360 0.078808 0.085559 0.092599 0.099915 0.107492 0.115318 0.123377 0.131658 0.140147 0.148832 0.157700 0.166738 0.175937 0.185285 0.194771 0.204385 0.214118 0.223961 0.233905 0.243942 0.254063 0.264263 0.274533 0.284867 0.295259 0.305703 0.316193 0.326724 0.337292 0.347891 0.358517 0.369167 0.379835 0.390519 0.401216 0.411921 0.422632 0.433347 0.029895 0.032298 0.035102 0.038302 0.041896 0.045876 0.050236 0.054966 0.060058 0.065501 0.071283 0.077392 0.083815 0.090539 0.097551 0.104838 0.112385 0.120179 0.128206 0.136455 0.144911 0.153562 0.162396 0.171401 0.180567 0.189881 0.199334 0.208916 0.218617 0.228428 0.238340 0.248346 0.258437 0.268606 0.278846 0.289151 0.299514 0.309930 0.320392 0.330895 0.341436 0.352008 0.362607 0.373230 0.383873 0.394531 0.405202 0.415881 0.426567 0.437257 0.035372 0.037785 0.040595 0.043797 0.047388 0.051361 0.055710 0.060427 0.065501 0.070923 0.076681 0.082764 0.089158 0.095852 0.102832 0.110084 0.117596 0.125354 0.133345 0.141556 0.149974 0.158587 0.167382 0.176349 0.185477 0.194753 0.204168 0.213713 0.223376 0.233151 0.243027 0.252997 0.263053 0.273188 0.283394 0.293665 0.303995 0.314377 0.324807 0.335279 0.345788 0.356330 0.366899 0.377492 0.388104 0.398733 0.409375 0.420026 0.430684 0.441345 0.041199 0.043623 0.046437 0.049640 0.053227 0.057192 0.061529 0.066229 0.071283 0.076681 0.082413 0.088466 0.094828 0.101487 0.108431 0.115645 0.123118 0.130835 0.138785 0.146953 0.155329 0.163899 0.172652 0.181576 0.190660 0.199894 0.209267 0.218769 0.228391 0.238125 0.247960 0.257890 0.267907 0.278002 0.288170 0.298404 0.308696 0.319042 0.329436 0.339873 0.350347 0.360854 0.371389 0.381948 0.392528 0.403124 0.413733 0.424352 0.434978 0.445608 0.047365 0.049798 0.052617 0.055820 0.059401 0.063357 0.067679 0.072360 0.077392 0.082764 0.088466 0.094486 0.100813 0.107434 0.114338 0.121511 0.128940 0.136613 0.144517 0.152639 0.160968 0.169491 0.178197 0.187073 0.196110 0.205297 0.214623 0.224079 0.233656 0.243343 0.253134 0.263020 0.272993 0.283046 0.293171 0.303363 0.313615 0.323920 0.334274 0.344672 0.355107 0.365576 0.376073 0.386596 0.397139 0.407699 0.418273 0.428857 0.439449 0.450044 0.053854 0.056297 0.059120 0.062321 0.065897 0.069841 0.074147 0.078808 0.083815 0.089158 0.094828 0.100813 0.107102 0.113682 0.120543 0.127670 0.135053 0.142677 0.150532 0.158605 0.166883 0.175355 0.184009 0.192834 0.201820 0.210955 0.220231 0.229636 0.239163 0.248801 0.258543 0.268381 0.278306 0.288312 0.298392 0.308538 0.318745 0.329007 0.339317 0.349672 0.360065 0.370493 0.380949 0.391432 0.401935 0.412456 0.422992 0.433538 0.444091 0.454650 0.060653 0.063105 0.065932 0.069131 0.072699 0.076631 0.080920 0.085559 0.090539 0.095852 0.101487 0.107434 0.113682 0.120219 0.127033 0.134113 0.141445 0.149019 0.156821 0.164840 0.173064 0.181481 0.190080 0.198850 0.207781 0.216862 0.226083 0.235434 0.244907 0.254492 0.264182 0.273967 0.283842 0.293797 0.303827 0.313924 0.324083 0.334297 0.344561 0.354869 0.365217 0.375600 0.386013 0.396452 0.406912 0.417391 0.427885 0.438390 0.448903 0.459422 0.067747 0.070208 0.073038 0.076235 0.079795 0.083713 0.087984 0.092599 0.097551 0.102832 0.108431 0.114338 0.120543 0.127033 0.133799 0.140827 0.148107 0.155626 0.163373 0.171335 0.179501 0.187861 0.196402 0.205113 0.213986 0.223008 0.232171 0.241465 0.250880 0.260409 0.270043 0.279773 0.289593 0.299494 0.309471 0.319516 0.329623 0.339786 0.350000 0.360259 0.370558 0.380893 0.391259 0.401652 0.412067 0.422501 0.432950 0.443411 0.453881 0.464357 0.075122 0.077591 0.080424 0.083618 0.087169 0.091073 0.095324 0.099915 0.104838 0.110084 0.115645 0.121511 0.127670 0.134113 0.140827 0.147803 0.155027 0.162489 0.170178 0.178080 0.186187 0.194485 0.202965 0.211615 0.220425 0.229386 0.238488 0.247721 0.257076 0.266545 0.276119 0.285791 0.295553 0.305397 0.315318 0.325307 0.335359 0.345469 0.355630 0.365837 0.376084 0.386369 0.396684 0.407028 0.417394 0.427780 0.438182 0.448597 0.459021 0.469452 0.082762 0.085240 0.088075 0.091266 0.094808 0.098697 0.102927 0.107492 0.112385 0.117596 0.123118 0.128940 0.135053 0.141445 0.148107 0.155027 0.162195 0.169597 0.177225 0.185066 0.193109 0.201344 0.209760 0.218346 0.227092 0.235989 0.245026 0.254195 0.263487 0.272893 0.282405 0.292016 0.301717 0.311501 0.321362 0.331293 0.341288 0.351340 0.361445 0.371597 0.381790 0.392021 0.402284 0.412575 0.422891 0.433226 0.443578 0.453944 0.464320 0.474703 0.090654 0.093140 0.095978 0.099164 0.102696 0.106570 0.110779 0.115318 0.120179 0.125354 0.130835 0.136613 0.142677 0.149019 0.155626 0.162489 0.169597 0.176939 0.184504 0.192281 0.200260 0.208429 0.216778 0.225297 0.233977 0.242806 0.251777 0.260880 0.270106 0.279446 0.288894 0.298440 0.308077 0.317799 0.327598 0.337467 0.347402 0.357395 0.367441 0.377535 0.387671 0.397846 0.408053 0.418290 0.428552 0.438834 0.449134 0.459448 0.469773 0.480106 0.098784 0.101278 0.104117 0.107299 0.110821 0.114678 0.118866 0.123377 0.128206 0.133345 0.138785 0.144517 0.150532 0.156821 0.163373 0.170178 0.177225 0.184504 0.192005 0.199716 0.207627 0.215729 0.224010 0.232460 0.241070 0.249831 0.258733 0.267767 0.276924 0.286197 0.295577 0.305056 0.314628 0.324284 0.334018 0.343824 0.353696 0.363627 0.373612 0.383645 0.393722 0.403838 0.413988 0.424167 0.434373 0.444600 0.454846 0.465106 0.475378 0.485658 0.107137 0.109638 0.112479 0.115657 0.119168 0.123009 0.127174 0.131658 0.136455 0.141556 0.146953 0.152639 0.158605 0.164840 0.171335 0.178080 0.185066 0.192281 0.199716 0.207360 0.215203 0.223235 0.231445 0.239825 0.248365 0.257054 0.265885 0.274848 0.283935 0.293138 0.302448 0.311858 0.321361 0.330950 0.340617 0.350357 0.360164 0.370030 0.379952 0.389923 0.399938 0.409993 0.420082 0.430203 0.440350 0.450519 0.460708 0.470912 0.481129 0.491354 0.115699 0.118209 0.121051 0.124224 0.127724 0.131548 0.135691 0.140147 0.144911 0.149974 0.155329 0.160968 0.166883 0.173064 0.179501 0.186187 0.193109 0.200260 0.207627 0.215203 0.222976 0.230937 0.239076 0.247384 0.255851 0.264467 0.273225 0.282116 0.291131 0.300261 0.309500 0.318839 0.328272 0.337791 0.347389 0.357061 0.366800 0.376600 0.386456 0.396362 0.406313 0.416305 0.426332 0.436391 0.446477 0.456587 0.466717 0.476863 0.487022 0.497192 0.124459 0.126976 0.129819 0.132987 0.136476 0.140284 0.144404 0.148832 0.153562 0.158587 0.163899 0.169491 0.175355 0.181481 0.187861 0.194485 0.201344 0.208429 0.215729 0.223235 0.230937 0.238826 0.246892 0.255126 0.263519 0.272062 0.280746 0.289562 0.298502 0.307559 0.316725 0.325991 0.335352 0.344799 0.354327 0.363928 0.373598 0.383329 0.393117 0.402957 0.412842 0.422769 0.432732 0.442728 0.452751 0.462800 0.472869 0.482955 0.493055 0.503165 0.133403 0.135927 0.138771 0.141934 0.145412 0.149202 0.153300 0.157700 0.162396 0.167382 0.172652 0.178197 0.184009 0.190080 0.196402 0.202965 0.209760 0.216778 0.224010 0.231445 0.239076 0.246892 0.254885 0.263044 0.271362 0.279829 0.288438 0.297178 0.306043 0.315025 0.324115 0.333308 0.342594 0.351968 0.361423 0.370953 0.380552 0.390213 0.399932 0.409702 0.419520 0.429380 0.439277 0.449207 0.459167 0.469152 0.479158 0.489182 0.499221 0.509271 0.142518 0.145049 0.147895 0.151052 0.154519 0.158292 0.162367 0.166738 0.171401 0.176349 0.181576 0.187073 0.192834 0.198850 0.205113 0.211615 0.218346 0.225297 0.232460 0.239825 0.247384 0.255126 0.263044 0.271129 0.279370 0.287761 0.296293 0.304957 0.313745 0.322650 0.331665 0.340781 0.349992 0.359292 0.368673 0.378130 0.387655 0.397245 0.406892 0.416593 0.426341 0.436132 0.445962 0.455825 0.465719 0.475638 0.485580 0.495541 0.505517 0.515506 0.151794 0.154332 0.157178 0.160330 0.163786 0.167541 0.171594 0.175937 0.180567 0.185477 0.190660 0.196110 0.201820 0.207781 0.213986 0.220425 0.227092 0.233977 0.241070 0.248365 0.255851 0.263519 0.271362 0.279370 0.287536 0.295849 0.304303 0.312890 0.321600 0.330428 0.339365 0.348405 0.357540 0.366763 0.376069 0.385451 0.394903 0.404419 0.413994 0.423622 0.433300 0.443021 0.452781 0.462576 0.472402 0.482255 0.492131 0.502027 0.511938 0.521864 0.161219 0.163764 0.166610 0.169756 0.173201 0.176940 0.180969 0.185285 0.189881 0.194753 0.199894 0.205297 0.210955 0.216862 0.223008 0.229386 0.235989 0.242806 0.249831 0.257054 0.264467 0.272062 0.279829 0.287761 0.295849 0.304085 0.312461 0.320969 0.329602 0.338351 0.347210 0.356172 0.365229 0.374375 0.383605 0.392911 0.402287 0.411729 0.421230 0.430786 0.440391 0.450040 0.459730 0.469455 0.479212 0.488997 0.498806 0.508635 0.518481 0.528341 0.170783 0.173333 0.176180 0.179321 0.182754 0.186476 0.190483 0.194771 0.199334 0.204168 0.209267 0.214623 0.220231 0.226083 0.232171 0.238488 0.245026 0.251777 0.258733 0.265885 0.273225 0.280746 0.288438 0.296293 0.304303 0.312461 0.320759 0.329188 0.337741 0.346411 0.355192 0.364074 0.373053 0.382122 0.391274 0.400503 0.409803 0.419169 0.428595 0.438077 0.447608 0.457185 0.466803 0.476457 0.486144 0.495859 0.505599 0.515361 0.525140 0.534934 0.180475 0.183031 0.185878 0.189013 0.192435 0.196140 0.200125 0.204385 0.208916 0.213713 0.218769 0.224079 0.229636 0.235434 0.241465 0.247721 0.254195 0.260880 0.267767 0.274848 0.282116 0.289562 0.297178 0.304957 0.312890 0.320969 0.329188 0.337538 0.346012 0.354602 0.363303 0.372107 0.381007 0.389996 0.399070 0.408221 0.417444 0.426734 0.436084 0.445490 0.454947 0.464450 0.473995 0.483577 0.493193 0.502837 0.512507 0.522200 0.531911 0.541637 0.190285 0.192847 0.195694 0.198824 0.202234 0.205923 0.209885 0.214118 0.218617 0.223376 0.228391 0.233656 0.239163 0.244907 0.250880 0.257076 0.263487 0.270106 0.276924 0.283935 0.291131 0.298502 0.306043 0.313745 0.321600 0.329602 0.337741 0.346012 0.354406 0.362917 0.371537 0.380261 0.389082 0.397992 0.406987 0.416060 0.425205 0.434417 0.443690 0.453020 0.462402 0.471830 0.481301 0.490810 0.500353 0.509926 0.519525 0.529147 0.538789 0.548447 0.200205 0.202772 0.205619 0.208743 0.212142 0.215814 0.219755 0.223961 0.228428 0.233151 0.238125 0.243343 0.248801 0.254492 0.260409 0.266545 0.272893 0.279446 0.286197 0.293138 0.300261 0.307559 0.315025 0.322650 0.330428 0.338351 0.346411 0.354602 0.362917 0.371348 0.379888 0.388532 0.397272 0.406103 0.415018 0.424012 0.433078 0.442212 0.451408 0.460662 0.469967 0.479320 0.488716 0.498151 0.507620 0.517121 0.526648 0.536199 0.545771 0.555359 0.210225 0.212798 0.215645 0.218763 0.222151 0.225806 0.229725 0.233905 0.238340 0.243027 0.247960 0.253134 0.258543 0.264182 0.270043 0.276119 0.282405 0.288894 0.295577 0.302448 0.309500 0.316725 0.324115 0.331665 0.339365 0.347210 0.355192 0.363303 0.371537 0.379888 0.388348 0.396912 0.405572 0.414322 0.423158 0.432072 0.441059 0.450115 0.459233 0.468409 0.477637 0.486914 0.496234 0.505594 0.514989 0.524416 0.533871 0.543351 0.552851 0.562369 0.220338 0.222916 0.225762 0.228875 0.232252 0.235891 0.239788 0.243942 0.248346 0.252997 0.257890 0.263020 0.268381 0.273967 0.279773 0.285791 0.292016 0.298440 0.305056 0.311858 0.318839 0.325991 0.333308 0.340781 0.348405 0.356172 0.364074 0.372107 0.380261 0.388532 0.396912 0.405394 0.413974 0.422644 0.431400 0.440234 0.449142 0.458119 0.467158 0.476256 0.485407 0.494607 0.503851 0.513135 0.522456 0.531809 0.541190 0.550597 0.560025 0.569473 0.230536 0.233119 0.235964 0.239071 0.242437 0.246059 0.249936 0.254063 0.258437 0.263053 0.267907 0.272993 0.278306 0.283842 0.289593 0.295553 0.301717 0.308077 0.314628 0.321361 0.328272 0.335352 0.342594 0.349992 0.357540 0.365229 0.373053 0.381007 0.389082 0.397272 0.405572 0.413974 0.422473 0.431063 0.439738 0.448493 0.457321 0.466218 0.475179 0.484198 0.493271 0.502394 0.511561 0.520770 0.530015 0.539293 0.548600 0.557934 0.567290 0.576665 0.240811 0.243398 0.246243 0.249343 0.252698 0.256305 0.260161 0.264263 0.268606 0.273188 0.278002 0.283046 0.288312 0.293797 0.299494 0.305397 0.311501 0.317799 0.324284 0.330950 0.337791 0.344799 0.351968 0.359292 0.366763 0.374375 0.382122 0.389996 0.397992 0.406103 0.414322 0.422644 0.431063 0.439573 0.448168 0.456842 0.465590 0.474408 0.483289 0.492230 0.501225 0.510270 0.519360 0.528492 0.537661 0.546864 0.556097 0.565357 0.574640 0.583942 0.251157 0.253748 0.256591 0.259686 0.263030 0.266621 0.270456 0.274533 0.278846 0.283394 0.288170 0.293171 0.298392 0.303827 0.309471 0.315318 0.321362 0.327598 0.334018 0.340617 0.347389 0.354327 0.361423 0.368673 0.376069 0.383605 0.391274 0.399070 0.406987 0.415018 0.423158 0.431400 0.439738 0.448168 0.456682 0.465276 0.473945 0.482683 0.491485 0.500346 0.509263 0.518230 0.527243 0.536298 0.545391 0.554518 0.563676 0.572862 0.582071 0.591301 0.261567 0.264161 0.267004 0.270092 0.273425 0.277001 0.280815 0.284867 0.289151 0.293665 0.298404 0.303363 0.308538 0.313924 0.319516 0.325307 0.331293 0.337467 0.343824 0.350357 0.357061 0.363928 0.370953 0.378130 0.385451 0.392911 0.400503 0.408221 0.416060 0.424012 0.432072 0.440234 0.448493 0.456842 0.465276 0.473790 0.482379 0.491037 0.499760 0.508543 0.517381 0.526269 0.535205 0.544183 0.553199 0.562251 0.571333 0.580444 0.589579 0.598736 0.272034 0.274632 0.277473 0.280555 0.283878 0.287437 0.291232 0.295259 0.299514 0.303995 0.308696 0.313615 0.318745 0.324083 0.329623 0.335359 0.341288 0.347402 0.353696 0.360164 0.366800 0.373598 0.380552 0.387655 0.394903 0.402287 0.409803 0.417444 0.425205 0.433078 0.441059 0.449142 0.457321 0.465590 0.473945 0.482379 0.490888 0.499467 0.508110 0.516814 0.525573 0.534383 0.543241 0.552142 0.561082 0.570057 0.579064 0.588099 0.597160 0.606243 0.282553 0.285154 0.287994 0.291070 0.294381 0.297925 0.301700 0.305703 0.309930 0.314377 0.319042 0.323920 0.329007 0.334297 0.339786 0.345469 0.351340 0.357395 0.363627 0.370030 0.376600 0.383329 0.390213 0.397245 0.404419 0.411729 0.419169 0.426734 0.434417 0.442212 0.450115 0.458119 0.466218 0.474408 0.482683 0.491037 0.499467 0.507966 0.516530 0.525155 0.533835 0.542567 0.551347 0.560171 0.569033 0.577932 0.586864 0.595824 0.604810 0.613820 0.293119 0.295723 0.298560 0.301630 0.304930 0.308459 0.312214 0.316193 0.320392 0.324807 0.329436 0.334274 0.339317 0.344561 0.350000 0.355630 0.361445 0.367441 0.373612 0.379952 0.386456 0.393117 0.399932 0.406892 0.413994 0.421230 0.428595 0.436084 0.443690 0.451408 0.459233 0.467158 0.475179 0.483289 0.491485 0.499760 0.508110 0.516530 0.525015 0.533561 0.542163 0.550817 0.559519 0.568265 0.577051 0.585873 0.594729 0.603614 0.612526 0.621461 0.303726 0.306332 0.309167 0.312231 0.315520 0.319034 0.322769 0.326724 0.330895 0.335279 0.339873 0.344672 0.349672 0.354869 0.360259 0.365837 0.371597 0.377535 0.383645 0.389923 0.396362 0.402957 0.409702 0.416593 0.423622 0.430786 0.438077 0.445490 0.453020 0.460662 0.468409 0.476256 0.484198 0.492230 0.500346 0.508543 0.516814 0.525155 0.533561 0.542028 0.550552 0.559128 0.567752 0.576420 0.585130 0.593876 0.602655 0.611465 0.620302 0.629163 0.314369 0.316977 0.319811 0.322867 0.326146 0.329644 0.333360 0.337292 0.341436 0.345788 0.350347 0.355107 0.360065 0.365217 0.370558 0.376084 0.381790 0.387671 0.393722 0.399938 0.406313 0.412842 0.419520 0.426341 0.433300 0.440391 0.447608 0.454947 0.462402 0.469967 0.477637 0.485407 0.493271 0.501225 0.509263 0.517381 0.525573 0.533835 0.542163 0.550552 0.558997 0.567495 0.576042 0.584633 0.593265 0.601935 0.610639 0.619373 0.628135 0.636922 0.325045 0.327654 0.330485 0.333535 0.336802 0.340286 0.343983 0.347891 0.352008 0.356330 0.360854 0.365576 0.370493 0.375600 0.380893 0.386369 0.392021 0.397846 0.403838 0.409993 0.416305 0.422769 0.429380 0.436132 0.443021 0.450040 0.457185 0.464450 0.471830 0.479320 0.486914 0.494607 0.502394 0.510270 0.518230 0.526269 0.534383 0.542567 0.550817 0.559128 0.567495 0.575916 0.584385 0.592899 0.601455 0.610048 0.618676 0.627335 0.636023 0.644735 0.335748 0.338359 0.341186 0.344229 0.347486 0.350954 0.354632 0.358517 0.362607 0.366899 0.371389 0.376073 0.380949 0.386013 0.391259 0.396684 0.402284 0.408053 0.413988 0.420082 0.426332 0.432732 0.439277 0.445962 0.452781 0.459730 0.466803 0.473995 0.481301 0.488716 0.496234 0.503851 0.511561 0.519360 0.527243 0.535205 0.543241 0.551347 0.559519 0.567752 0.576042 0.584385 0.592777 0.601214 0.609694 0.618211 0.626763 0.635347 0.643960 0.652598 0.346474 0.349086 0.351911 0.354946 0.358192 0.361645 0.365304 0.369167 0.373230 0.377492 0.381948 0.386596 0.391432 0.396452 0.401652 0.407028 0.412575 0.418290 0.424167 0.430203 0.436391 0.442728 0.449207 0.455825 0.462576 0.469455 0.476457 0.483577 0.490810 0.498151 0.505594 0.513135 0.520770 0.528492 0.536298 0.544183 0.552142 0.560171 0.568265 0.576420 0.584633 0.592899 0.601214 0.609575 0.617978 0.626420 0.634897 0.643406 0.651944 0.660508 0.357221 0.359833 0.362654 0.365682 0.368917 0.372355 0.375995 0.379835 0.383873 0.388104 0.392528 0.397139 0.401935 0.406912 0.412067 0.417394 0.422891 0.428552 0.434373 0.440350 0.446477 0.452751 0.459167 0.465719 0.472402 0.479212 0.486144 0.493193 0.500353 0.507620 0.514989 0.522456 0.530015 0.537661 0.545391 0.553199 0.561082 0.569033 0.577051 0.585130 0.593265 0.601455 0.609694 0.617978 0.626305 0.634671 0.643073 0.651508 0.659971 0.668462 0.367983 0.370596 0.373413 0.376434 0.379657 0.383080 0.386702 0.390519 0.394531 0.398733 0.403124 0.407699 0.412456 0.417391 0.422501 0.427780 0.433226 0.438834 0.444600 0.450519 0.456587 0.462800 0.469152 0.475638 0.482255 0.488997 0.495859 0.502837 0.509926 0.517121 0.524416 0.531809 0.539293 0.546864 0.554518 0.562251 0.570057 0.577932 0.585873 0.593876 0.601935 0.610048 0.618211 0.626420 0.634671 0.642962 0.651289 0.659649 0.668039 0.676456 0.378759 0.381371 0.384185 0.387198 0.390409 0.393817 0.397420 0.401216 0.405202 0.409375 0.413733 0.418273 0.422992 0.427885 0.432950 0.438182 0.443578 0.449134 0.454846 0.460708 0.466717 0.472869 0.479158 0.485580 0.492131 0.498806 0.505599 0.512507 0.519525 0.526648 0.533871 0.541190 0.548600 0.556097 0.563676 0.571333 0.579064 0.586864 0.594729 0.602655 0.610639 0.618676 0.626763 0.634897 0.643073 0.651289 0.659542 0.667827 0.676143 0.684487 0.389544 0.392156 0.394965 0.397970 0.401170 0.404563 0.408148 0.411921 0.415881 0.420026 0.424352 0.428857 0.433538 0.438390 0.443411 0.448597 0.453944 0.459448 0.465106 0.470912 0.476863 0.482955 0.489182 0.495541 0.502027 0.508635 0.515361 0.522200 0.529147 0.536199 0.543351 0.550597 0.557934 0.565357 0.572862 0.580444 0.588099 0.595824 0.603614 0.611465 0.619373 0.627335 0.635347 0.643406 0.651508 0.659649 0.667827 0.676039 0.684282 0.692553 0.400337 0.402947 0.405752 0.408749 0.411937 0.415315 0.418881 0.422632 0.426567 0.430684 0.434978 0.439449 0.444091 0.448903 0.453881 0.459021 0.464320 0.469773 0.475378 0.481129 0.487022 0.493055 0.499221 0.505517 0.511938 0.518481 0.525140 0.531911 0.538789 0.545771 0.552851 0.560025 0.567290 0.574640 0.582071 0.589579 0.597160 0.604810 0.612526 0.620302 0.628135 0.636023 0.643960 0.651944 0.659971 0.668039 0.676143 0.684282 0.692452 0.700650 0.411134 0.413743 0.416542 0.419531 0.422707 0.426070 0.429617 0.433347 0.437257 0.441345 0.445608 0.450044 0.454650 0.459422 0.464357 0.469452 0.474703 0.480106 0.485658 0.491354 0.497192 0.503165 0.509271 0.515506 0.521864 0.528341 0.534934 0.541637 0.548447 0.555359 0.562369 0.569473 0.576665 0.583942 0.591301 0.598736 0.606243 0.613820 0.621461 0.629163 0.636922 0.644735 0.652598 0.660508 0.668462 0.676456 0.684487 0.692553 0.700650 0.708777 0.002310 0.004633 0.007374 0.010530 0.014095 0.018063 0.022426 0.027174 0.032298 0.037785 0.043623 0.049798 0.056297 0.063105 0.070208 0.077591 0.085240 0.093140 0.101278 0.109638 0.118209 0.126976 0.135927 0.145049 0.154332 0.163764 0.173333 0.183031 0.192847 0.202772 0.212798 0.222916 0.233119 0.243398 0.253748 0.264161 0.274632 0.285154 0.295723 0.306332 0.316977 0.327654 0.338359 0.349086 0.359833 0.370596 0.381371 0.392156 0.402947 0.413743 0.004633 0.006970 0.009723 0.012891 0.016468 0.020447 0.024822 0.029582 0.034716 0.040214 0.046062 0.052247 0.058755 0.065573 0.072685 0.080077 0.087735 0.095644 0.103789 0.112158 0.120736 0.129511 0.138469 0.147599 0.156889 0.166327 0.175903 0.185607 0.195429 0.205360 0.215391 0.225514 0.235722 0.246006 0.256360 0.266777 0.277251 0.287777 0.298348 0.308960 0.319607 0.330286 0.340992 0.351720 0.362468 0.373231 0.384006 0.394790 0.405580 0.416374 0.007374 0.009723 0.012488 0.015667 0.019254 0.023243 0.027626 0.032393 0.037534 0.043038 0.048891 0.055081 0.061594 0.068416 0.075531 0.082926 0.090587 0.098498 0.106646 0.115016 0.123596 0.132372 0.141332 0.150463 0.159753 0.169192 0.178769 0.188473 0.198296 0.208227 0.218258 0.228381 0.238588 0.248871 0.259224 0.269640 0.280113 0.290637 0.301207 0.311817 0.322462 0.333139 0.343841 0.354567 0.365311 0.376070 0.386841 0.397621 0.408407 0.419196 0.010530 0.012891 0.015667 0.018855 0.022450 0.026445 0.030833 0.035605 0.040749 0.046255 0.052109 0.058299 0.064811 0.071631 0.078744 0.086137 0.093794 0.101701 0.109845 0.118211 0.126787 0.135558 0.144513 0.153639 0.162924 0.172358 0.181929 0.191628 0.201445 0.211371 0.221396 0.231514 0.241715 0.251993 0.262340 0.272750 0.283217 0.293735 0.304298 0.314902 0.325541 0.336210 0.346906 0.357625 0.368362 0.379113 0.389877 0.400649 0.411426 0.422207 0.014095 0.016468 0.019254 0.022450 0.026051 0.030051 0.034441 0.039213 0.044357 0.049860 0.055710 0.061895 0.068401 0.075214 0.082320 0.089704 0.097352 0.105250 0.113384 0.121740 0.130305 0.139065 0.148009 0.157124 0.166398 0.175821 0.185381 0.195069 0.204875 0.214790 0.224805 0.234911 0.245101 0.255368 0.265705 0.276104 0.286561 0.297068 0.307621 0.318213 0.328841 0.339500 0.350185 0.360892 0.371618 0.382359 0.393111 0.403871 0.414637 0.425406 0.018063 0.020447 0.023243 0.026445 0.030051 0.034052 0.038442 0.043212 0.048350 0.053847 0.059690 0.065865 0.072360 0.079161 0.086254 0.093624 0.101257 0.109140 0.117258 0.125598 0.134146 0.142890 0.151817 0.160915 0.170173 0.179579 0.189122 0.198794 0.208583 0.218482 0.228480 0.238570 0.248745 0.258996 0.269317 0.279701 0.290142 0.300634 0.311171 0.321749 0.332362 0.343005 0.353676 0.364368 0.375079 0.385804 0.396541 0.407287 0.418038 0.428791 0.022426 0.024822 0.027626 0.030833 0.034441 0.038442 0.042829 0.047593 0.052724 0.058210 0.064040 0.070202 0.076681 0.083465 0.090539 0.097890 0.105503 0.113365 0.121462 0.129780 0.138306 0.147028 0.155932 0.165008 0.174243 0.183627 0.193148 0.202798 0.212565 0.222442 0.232419 0.242488 0.252642 0.262873 0.273173 0.283537 0.293958 0.304430 0.314948 0.325506 0.336100 0.346725 0.357376 0.368049 0.378741 0.389448 0.400167 0.410894 0.421626 0.432361 0.027174 0.029582 0.032393 0.035605 0.039213 0.043212 0.047593 0.052348 0.057467 0.062940 0.068754 0.074897 0.081357 0.088119 0.095170 0.102496 0.110084 0.117920 0.125990 0.134281 0.142780 0.151473 0.160350 0.169398 0.178605 0.187961 0.197455 0.207077 0.216818 0.226668 0.236619 0.246662 0.256790 0.266995 0.277270 0.287609 0.298006 0.308454 0.318948 0.329483 0.340053 0.350655 0.361283 0.371934 0.382604 0.393289 0.403985 0.414690 0.425400 0.436113 0.032298 0.034716 0.037534 0.040749 0.044357 0.048350 0.052724 0.057467 0.062572 0.068028 0.073822 0.079943 0.086378 0.093114 0.100137 0.107434 0.114992 0.122797 0.130835 0.139094 0.147560 0.156220 0.165064 0.174079 0.183253 0.192576 0.202038 0.211627 0.221336 0.231154 0.241074 0.251086 0.261184 0.271359 0.281605 0.291915 0.302283 0.312703 0.323169 0.333676 0.344219 0.354794 0.365395 0.376020 0.386664 0.397323 0.407993 0.418673 0.429358 0.440046 0.037785 0.040214 0.043038 0.046255 0.049860 0.053847 0.058210 0.062940 0.068028 0.073462 0.079233 0.085328 0.091735 0.098441 0.105432 0.112696 0.120219 0.127988 0.135990 0.144211 0.152639 0.161262 0.170068 0.179044 0.188181 0.197466 0.206890 0.216443 0.226115 0.235897 0.245781 0.255758 0.265820 0.275961 0.286173 0.296450 0.306784 0.317172 0.327606 0.338082 0.348594 0.359138 0.369709 0.380304 0.390918 0.401547 0.412189 0.422840 0.433497 0.444157 0.043623 0.046062 0.048891 0.052109 0.055710 0.059690 0.064040 0.068754 0.073822 0.079233 0.084978 0.091044 0.097419 0.104090 0.111046 0.118272 0.125756 0.133485 0.141445 0.149625 0.158011 0.166592 0.175355 0.184288 0.193382 0.202625 0.212007 0.221518 0.231149 0.240890 0.250733 0.260671 0.270694 0.280796 0.290970 0.301209 0.311507 0.321858 0.332256 0.342697 0.353174 0.363684 0.374221 0.384782 0.395363 0.405960 0.416570 0.427189 0.437814 0.448443 0.049798 0.052247 0.055081 0.058299 0.061895 0.065865 0.070202 0.074897 0.079943 0.085328 0.091044 0.097077 0.103417 0.110051 0.116967 0.124152 0.131593 0.139278 0.147193 0.155327 0.163667 0.172200 0.180916 0.189803 0.198850 0.208047 0.217382 0.226847 0.236432 0.246128 0.255927 0.265820 0.275800 0.285860 0.295992 0.306189 0.316447 0.326757 0.337116 0.347517 0.357956 0.368428 0.378928 0.389453 0.399997 0.410558 0.421132 0.431716 0.442307 0.452901 0.056297 0.058755 0.061594 0.064811 0.068401 0.072360 0.076681 0.081357 0.086378 0.091735 0.097419 0.103417 0.109719 0.116312 0.123186 0.130326 0.137721 0.145357 0.153224 0.161308 0.169597 0.178080 0.186746 0.195581 0.204577 0.213723 0.223008 0.232423 0.241958 0.251605 0.261356 0.271201 0.281134 0.291147 0.301233 0.311385 0.321598 0.331865 0.342180 0.352539 0.362936 0.373367 0.383826 0.394310 0.404815 0.415338 0.425873 0.436419 0.446972 0.457529 0.063105 0.065573 0.068416 0.071631 0.075214 0.079161 0.083465 0.088119 0.093114 0.098441 0.104090 0.110051 0.116312 0.122863 0.129690 0.136783 0.144128 0.151714 0.159528 0.167559 0.175794 0.184223 0.192833 0.201615 0.210556 0.219647 0.228878 0.238239 0.247721 0.257315 0.267013 0.276807 0.286689 0.296652 0.306688 0.316792 0.326957 0.337176 0.347445 0.357758 0.368110 0.378496 0.388911 0.399352 0.409815 0.420295 0.430789 0.441294 0.451806 0.462324 0.070208 0.072685 0.075531 0.078744 0.082320 0.086254 0.090539 0.095170 0.100137 0.105432 0.111046 0.116967 0.123186 0.129690 0.136469 0.143511 0.150804 0.158336 0.166095 0.174070 0.182248 0.190619 0.199172 0.207895 0.216778 0.225811 0.234984 0.244288 0.253713 0.263251 0.272893 0.282632 0.292460 0.302369 0.312352 0.322404 0.332517 0.342686 0.352905 0.363169 0.373472 0.383811 0.394179 0.404574 0.414991 0.425426 0.435876 0.446337 0.456807 0.467281 0.077591 0.080077 0.082926 0.086137 0.089704 0.093624 0.097890 0.102496 0.107434 0.112696 0.118272 0.124152 0.130326 0.136783 0.143511 0.150500 0.157738 0.165214 0.172915 0.180830 0.188949 0.197259 0.205751 0.214413 0.223235 0.232207 0.241319 0.250562 0.259927 0.269406 0.278989 0.288670 0.298440 0.308292 0.318220 0.328216 0.338275 0.348390 0.358556 0.368768 0.379020 0.389308 0.399626 0.409972 0.420340 0.430728 0.441131 0.451545 0.461969 0.472398 0.085240 0.087735 0.090587 0.093794 0.097352 0.101257 0.105503 0.110084 0.114992 