# vtk DataFile Version 3.0
vtk output
ASCII
DATASET STRUCTURED_POINTS
DIMENSIONS 50 50 50
SPACING 0.020408 0.020408 0.020408
ORIGIN 0.000000 0.000000 0.000000
POINT_DATA 125000
SCALARS RTData float
LOOKUP_TABLE default
-0.000000 0.006670 0.013571 0.020701 0.028058 0.035639 0.043440 0.051458 0.059690 0.068131 0.076777 0.085622 0.094664 0.103895 0.113311 0.122907 0.132676 0.142613 0.152711 0.162966 0.173369 0.183916 0.194599 0.205412 0.216349 0.227403 0.238568 0.249837 0.261203 0.272661 0.284204 0.295825 0.307519 0.319279 0.331099 0.342973 0.354896 0.366861 0.378864 0.390898 0.402959 0.415041 0.427139 0.439249 0.451366 0.463484 0.475601 0.487712 0.499812 0.511899 -0.003537 0.003149 0.010067 0.017216 0.024592 0.032194 0.040017 0.048059 0.056315 0.064781 0.073453 0.082327 0.091397 0.100658 0.110105 0.119732 0.129533 0.139503 0.149636 0.159925 0.170364 0.180946 0.191666 0.202517 0.213491 0.224584 0.235787 0.247095 0.258501 0.269998 0.281581 0.293242 0.304976 0.316776 0.328637 0.340551 0.352514 0.364519 0.376562 0.388636 0.400736 0.412858 0.424995 0.437144 0.449299 0.461456 0.473611 0.485759 0.497896 0.510019 -0.006931 -0.000230 0.006705 0.013871 0.021267 0.028888 0.036732 0.044796 0.053076 0.061566 0.070264 0.079164 0.088261 0.097551 0.107027 0.116684 0.126517 0.136519 0.146684 0.157006 0.167479 0.178096 0.188851 0.199737 0.210748 0.221877 0.233117 0.244463 0.255906 0.267442 0.279062 0.290762 0.302534 0.314373 0.326272 0.338225 0.350226 0.362270 0.374351 0.386464 0.398602 0.410761 0.422936 0.435122 0.447314 0.459508 0.471699 0.483883 0.496055 0.508213 -0.010181 -0.003465 0.003485 0.010669 0.018082 0.025723 0.033587 0.041672 0.049974 0.058488 0.067210 0.076135 0.085259 0.094575 0.104080 0.113766 0.123628 0.133660 0.143856 0.154210 0.164715 0.175366 0.186154 0.197074 0.208120 0.219284 0.230559 0.241940 0.253420 0.264992 0.276649 0.288385 0.300194 0.312070 0.324005 0.335995 0.348034 0.360115 0.372232 0.384381 0.396556 0.408751 0.420962 0.433184 0.445412 0.457640 0.469866 0.482084 0.494291 0.506483 -0.013286 -0.006556 0.000409 0.007609 0.015039 0.022698 0.030582 0.038688 0.047011 0.055547 0.064292 0.073241 0.082390 0.091732 0.101263 0.110976 0.120867 0.130928 0.141154 0.151538 0.162074 0.172756 0.183576 0.194529 0.205607 0.216804 0.228114 0.239529 0.251043 0.262649 0.274341 0.286112 0.297956 0.309867 0.321838 0.333864 0.345937 0.358053 0.370206 0.382390 0.394599 0.406829 0.419075 0.431331 0.443592 0.455855 0.468114 0.480365 0.492604 0.504828 -0.016245 -0.009502 -0.002522 0.004693 0.012140 0.019816 0.027718 0.035843 0.044186 0.052744 0.061511 0.070483 0.079655 0.089022 0.098578 0.108318 0.118235 0.128323 0.138577 0.148990 0.159556 0.170267 0.181118 0.192102 0.203211 0.214440 0.225782 0.237229 0.248776 0.260415 0.272140 0.283944 0.295822 0.307766 0.319771 0.331830 0.343937 0.356086 0.368273 0.380490 0.392733 0.404996 0.417274 0.429562 0.441856 0.454151 0.466441 0.478724 0.490995 0.503249 -0.019057 -0.012302 -0.005308 0.001921 0.009384 0.017077 0.024996 0.033139 0.041502 0.050079 0.058867 0.067861 0.077056 0.086446 0.096026 0.105790 0.115732 0.125847 0.136128 0.146568 0.157161 0.167901 0.178780 0.189793 0.200932 0.212191 0.223563 0.235041 0.246619 0.258289 0.270046 0.281882 0.293791 0.305767 0.317804 0.329894 0.342034 0.354215 0.366433 0.378682 0.390956 0.403251 0.415560 0.427880 0.440204 0.452529 0.464850 0.477163 0.489463 0.501746 -0.021723 -0.014955 -0.007949 -0.000705 0.006772 0.014481 0.022417 0.030577 0.038957 0.047554 0.056362 0.065376 0.074592 0.084004 0.093606 0.103394 0.113360 0.123499 0.133805 0.144271 0.154890 0.165657 0.176564 0.187604 0.198772 0.210059 0.221460 0.232967 0.244573 0.256273 0.268060 0.279926 0.291865 0.303871 0.315938 0.328059 0.340228 0.352439 0.364688 0.376966 0.389271 0.401595 0.413934 0.426283 0.438637 0.450990 0.463340 0.475681 0.488009 0.500320 -0.024241 -0.017462 -0.010443 -0.003186 0.004305 0.012028 0.019980 0.028157 0.036554 0.045168 0.053995 0.063028 0.072264 0.081697 0.091321 0.101130 0.111119 0.121281 0.131610 0.142101 0.152745 0.163536 0.174469 0.185535 0.196729 0.208043 0.219471 0.231005 0.242640 0.254367 0.266182 0.278076 0.290043 0.302078 0.314173 0.326322 0.338520 0.350760 0.363037 0.375344 0.387677 0.400029 0.412396 0.424773 0.437154 0.449535 0.461912 0.474279 0.486634 0.498972 -0.026611 -0.019821 -0.012790 -0.005521 0.001983 0.009720 0.017686 0.025878 0.034292 0.042923 0.051767 0.060818 0.070073 0.079525 0.089169 0.098998 0.109009 0.119192 0.129544 0.140057 0.150724 0.161539 0.172496 0.183587 0.194805 0.206144 0.217597 0.229157 0.240818 0.252572 0.264412 0.276333 0.288327 0.300388 0.312510 0.324686 0.336911 0.349178 0.361481 0.373815 0.386174 0.398553 0.410946 0.423349 0.435756 0.448163 0.460566 0.472959 0.485338 0.497701 -0.028833 -0.022032 -0.014991 -0.007710 -0.000194 0.007556 0.015536 0.023742 0.032171 0.040818 0.049678 0.058746 0.068018 0.077488 0.087151 0.097000 0.107030 0.117234 0.127606 0.138140 0.148829 0.159666 0.170645 0.181759 0.193000 0.204363 0.215840 0.227424 0.239109 0.250887 0.262752 0.274697 0.286716 0.298803 0.310950 0.323151 0.335401 0.347693 0.360021 0.372380 0.384764 0.397168 0.409586 0.422013 0.434445 0.446876 0.459302 0.471719 0.484122 0.496507 -0.030906 -0.024096 -0.017044 -0.009753 -0.002225 0.005537 0.013530 0.021749 0.030192 0.038853 0.047728 0.056812 0.066101 0.075587 0.085267 0.095134 0.105182 0.115405 0.125797 0.136350 0.147059 0.157917 0.168917 0.180052 0.191315 0.202700 0.214198 0.225805 0.237512 0.249313 0.261201 0.273170 0.285212 0.297322 0.309492 0.321717 0.333990 0.346305 0.358657 0.371039 0.383446 0.395873 0.408314 0.420764 0.433219 0.445672 0.458121 0.470560 0.482985 0.495392 -0.032830 -0.026012 -0.018951 -0.011650 -0.004111 0.003663 0.011667 0.019899 0.028354 0.037029 0.045918 0.055017 0.064320 0.073823 0.083518 0.093402 0.103467 0.113707 0.124117 0.134688 0.145416 0.156293 0.167312 0.178466 0.189749 0.201154 0.212674 0.224301 0.236029 0.247851 0.259760 0.271750 0.283814 0.295945 0.308137 0.320383 0.332678 0.345015 0.357389 0.369793 0.382222 0.394670 0.407132 0.419604 0.432079 0.444554 0.457023 0.469483 0.481928 0.494355 -0.034607 -0.027780 -0.020710 -0.013399 -0.005851 0.001933 0.009948 0.018191 0.026659 0.035346 0.044248 0.053360 0.062677 0.072194 0.081904 0.091803 0.101884 0.112140 0.122566 0.133154 0.143899 0.154793 0.165830 0.177002 0.188304 0.199727 0.211265 0.222912 0.234659 0.246500 0.258429 0.270439 0.282523 0.294674 0.306885 0.319152 0.331467 0.343824 0.356217 0.368641 0.381090 0.393558 0.406040 0.418531 0.431026 0.443520 0.456009 0.468487 0.480951 0.493397 -0.036234 -0.029400 -0.022322 -0.015003 -0.007445 0.000348 0.008373 0.016627 0.025105 0.033803 0.042717 0.051841 0.061171 0.070701 0.080425 0.090337 0.100432 0.110703 0.121144 0.131748 0.142508 0.153418 0.164471 0.175660 0.186978 0.198419 0.209974 0.221638 0.233403 0.245262 0.257209 0.269236 0.281338 0.293507 0.305737 0.318022 0.330355 0.342731 0.355143 0.367585 0.380052 0.392538 0.405038 0.417547 0.430060 0.442572 0.455078 0.467574 0.480055 0.492518 -0.037713 -0.030872 -0.023787 -0.016460 -0.008894 -0.001093 0.006942 0.015205 0.023693 0.032401 0.041326 0.050461 0.059802 0.069344 0.079080 0.089005 0.099113 0.109397 0.119851 0.130469 0.141244 0.152168 0.163236 0.174440 0.185773 0.197229 0.208800 0.220479 0.232260 0.244136 0.256099 0.268143 0.280261 0.292446 0.304693 0.316995 0.329344 0.341737 0.354165 0.366624 0.379107 0.391610 0.404127 0.416652 0.429181 0.441709 0.454231 0.466743 0.479240 0.491719 -0.039044 -0.032196 -0.025105 -0.017771 -0.010198 -0.002389 0.005654 0.013925 0.022422 0.031140 0.040074 0.049219 0.058571 0.068123 0.077870 0.087807 0.097926 0.108222 0.118688 0.129318 0.140106 0.151043 0.162124 0.173341 0.184688 0.196158 0.207743 0.219436 0.231232 0.243121 0.255099 0.267158 0.279291 0.291491 0.303753 0.316069 0.328434 0.340841 0.353284 0.365758 0.378257 0.390774 0.403306 0.415846 0.428390 0.440932 0.453468 0.465994 0.478506 0.490998 -0.040226 -0.033373 -0.026276 -0.018936 -0.011356 -0.003540 0.004510 0.012789 0.021293 0.030019 0.038962 0.048116 0.057477 0.067038 0.076795 0.086741 0.096871 0.107177 0.117654 0.128296 0.139094 0.150043 0.161135 0.172365 0.183724 0.195206 0.206803 0.218509 0.230317 0.242220 0.254210 0.266282 0.278428 0.290642 0.302917 0.315246 0.327624 0.340045 0.352501 0.364988 0.377500 0.390031 0.402576 0.415129 0.427685 0.440241 0.452790 0.465329 0.477853 0.490358 -0.041260 -0.034402 -0.027300 -0.019955 -0.012369 -0.004547 0.003509 0.011794 0.020306 0.029039 0.037989 0.047151 0.056519 0.066089 0.075854 0.085809 0.095948 0.106263 0.116750 0.127401 0.138209 0.149168 0.160271 0.171510 0.182880 0.194372 0.205981 0.217698 0.229517 0.241431 0.253432 0.265516 0.277673 0.289898 0.302185 0.314526 0.326916 0.339348 0.351816 0.364314 0.376838 0.389380 0.401936 0.414501 0.427069 0.439635 0.452196 0.464746 0.477281 0.489796 -0.042146 -0.035284 -0.028177 -0.020828 -0.013237 -0.005410 0.002651 0.010942 0.019460 0.028199 0.037155 0.046324 0.055699 0.065276 0.075048 0.085011 0.095157 0.105480 0.115975 0.126634 0.137450 0.148418 0.159529 0.170778 0.182156 0.193658 0.205276 0.217002 0.228831 0.240754 0.252766 0.264858 0.277026 0.289261 0.301557 0.313908 0.326308 0.338750 0.351228 0.363737 0.376270 0.388822 0.401388 0.413962 0.426540 0.439116 0.451686 0.464246 0.476790 0.489315 -0.042884 -0.036019 -0.028908 -0.021555 -0.013961 -0.006129 0.001937 0.010233 0.018755 0.027499 0.036461 0.045635 0.055016 0.064598 0.074377 0.084345 0.094498 0.104828 0.115329 0.125995 0.136818 0.147793 0.158912 0.170167 0.181554 0.193063 0.204688 0.216422 0.228259 0.240190 0.252210 0.264311 0.276486 0.288729 0.301034 0.313393 0.325801 0.338252 0.350738 0.363255 0.375796 0.388357 0.400931 0.413514 0.426099 0.438684 0.451262 0.463829 0.476381 0.488914 -0.043474 -0.036607 -0.029493 -0.022136 -0.014539 -0.006704 0.001365 0.009665 0.018191 0.026940 0.035905 0.045083 0.054469 0.064056 0.073839 0.083813 0.093970 0.104306 0.114812 0.125483 0.136313 0.147293 0.158417 0.169679 0.181071 0.192587 0.204218 0.215959 0.227801 0.239739 0.251765 0.263872 0.276054 0.288304 0.300615 0.312981 0.325396 0.337853 0.350346 0.362869 0.375417 0.387985 0.400565 0.413154 0.425747 0.438337 0.450922 0.463495 0.476054 0.488593 -0.043917 -0.037047 -0.029932 -0.022572 -0.014973 -0.007135 0.000937 0.009240 0.017769 0.026520 0.035489 0.044670 0.054059 0.063650 0.073437 0.083414 0.093575 0.103914 0.114425 0.125100 0.135933 0.146918 0.158047 0.169313 0.180710 0.192229 0.203865 0.215611 0.227458 0.239401 0.251431 0.263544 0.275731 0.287985 0.300301 0.312672 0.325092 0.337554 0.350052 0.362580 0.375133 0.387705 0.400291 0.412885 0.425482 0.438078 0.450667 0.463245 0.475808 0.488352 -0.044212 -0.037341 -0.030224 -0.022863 -0.015262 -0.007422 0.000651 0.008956 0.017487 0.026240 0.035211 0.044395 0.053786 0.063379 0.073168 0.083148 0.093312 0.103653 0.114166 0.124844 0.135681 0.146668 0.157800 0.169069 0.180468 0.191991 0.203630 0.215379 0.227229 0.239175 0.251209 0.263325 0.275515 0.287773 0.300092 0.312466 0.324889 0.337354 0.349856 0.362387 0.374944 0.387519 0.400108 0.412705 0.425306 0.437904 0.450497 0.463078 0.475645 0.488192 -0.044360 -0.037488 -0.030370 -0.023008 -0.015406 -0.007566 0.000509 0.008814 0.017346 0.026100 0.035072 0.044257 0.053649 0.063243 0.073034 0.083015 0.093180 0.103523 0.114037 0.124717 0.135554 0.146543 0.157676 0.168947 0.180348 0.191872 0.203513 0.215263 0.227115 0.239062 0.251098 0.263215 0.275407 0.287666 0.299987 0.312363 0.324788 0.337254 0.349758 0.362291 0.374849 0.387426 0.400016 0.412615 0.425217 0.437818 0.450412 0.462995 0.475563 0.488111 -0.044360 -0.037488 -0.030370 -0.023008 -0.015406 -0.007566 0.000509 0.008814 0.017346 0.026100 0.035072 0.044257 0.053649 0.063243 0.073034 0.083015 0.093180 0.103523 0.114037 0.124717 0.135554 0.146543 0.157676 0.168947 0.180348 0.191872 0.203513 0.215263 0.227115 0.239062 0.251098 0.263215 0.275407 0.287666 0.299987 0.312363 0.324788 0.337254 0.349758 0.362291 0.374849 0.387426 0.400016 0.412615 0.425217 0.437818 0.450412 0.462995 0.475563 0.488111 -0.044212 -0.037341 -0.030224 -0.022863 -0.015262 -0.007422 0.000651 0.008956 0.017487 0.026240 0.035211 0.044395 0.053786 0.063379 0.073168 0.083148 0.093312 0.103653 0.114166 0.124844 0.135681 0.146668 0.157800 0.169069 0.180468 0.191991 0.203630 0.215379 0.227229 0.239175 0.251209 0.263325 0.275515 0.287773 0.300092 0.312466 0.324889 0.337354 0.349856 0.362387 0.374944 0.387519 0.400108 0.412705 0.425306 0.437904 0.450497 0.463078 0.475645 0.488192 -0.043917 -0.037047 -0.029932 -0.022572 -0.014973 -0.007135 0.000937 0.009240 0.017769 0.026520 0.035489 0.044670 0.054059 0.063650 0.073437 0.083414 0.093575 0.103914 0.114425 0.125100 0.135933 0.146918 0.158047 0.169313 0.180710 0.192229 0.203865 0.215611 0.227458 0.239401 0.251431 0.263544 0.275731 0.287985 0.300301 0.312672 0.325092 0.337554 0.350052 0.362580 0.375133 0.387705 0.400291 0.412885 0.425482 0.438078 0.450667 0.463245 0.475808 0.488352 -0.043474 -0.036607 -0.029493 -0.022136 -0.014539 -0.006704 0.001365 0.009665 0.018191 0.026940 0.035905 0.045083 0.054469 0.064056 0.073839 0.083813 0.093970 0.104306 0.114812 0.125483 0.136313 0.147293 0.158417 0.169679 0.181071 0.192587 0.204218 0.215959 0.227801 0.239739 0.251765 0.263872 0.276054 0.288304 0.300615 0.312981 0.325396 0.337853 0.350346 0.362869 0.375417 0.387985 0.400565 0.413154 0.425747 0.438337 0.450922 0.463495 0.476054 0.488593 -0.042884 -0.036019 -0.028908 -0.021555 -0.013961 -0.006129 0.001937 0.010233 0.018755 0.027499 0.036461 0.045635 0.055016 0.064598 0.074377 0.084345 0.094498 0.104828 0.115329 0.125995 0.136818 0.147793 0.158912 0.170167 0.181554 0.193063 0.204688 0.216422 0.228259 0.240190 0.252210 0.264311 0.276486 0.288729 0.301034 0.313393 0.325801 0.338252 0.350738 0.363255 0.375796 0.388357 0.400931 0.413514 0.426099 0.438684 0.451262 0.463829 0.476381 0.488914 -0.042146 -0.035284 -0.028177 -0.020828 -0.013237 -0.005410 0.002651 0.010942 0.019460 0.028199 0.037155 0.046324 0.055699 0.065276 0.075048 0.085011 0.095157 0.105480 0.115975 0.126634 0.137450 0.148418 0.159529 0.170778 0.182156 0.193658 0.205276 0.217002 0.228831 0.240754 0.252766 0.264858 0.277026 0.289261 0.301557 0.313908 0.326308 0.338750 0.351228 0.363737 0.376270 0.388822 0.401388 0.413962 0.426540 0.439116 0.451686 0.464246 0.476790 0.489315 -0.041260 -0.034402 -0.027300 -0.019955 -0.012369 -0.004547 0.003509 0.011794 0.020306 0.029039 0.037989 0.047151 0.056519 0.066089 0.075854 0.085809 0.095948 0.106263 0.116750 0.127401 0.138209 0.149168 0.160271 0.171510 0.182880 0.194372 0.205981 0.217698 0.229517 0.241431 0.253432 0.265516 0.277673 0.289898 0.302185 0.314526 0.326916 0.339348 0.351816 0.364314 0.376838 0.389380 0.401936 0.414501 0.427069 0.439635 0.452196 0.464746 0.477281 0.489796 -0.040226 -0.033373 -0.026276 -0.018936 -0.011356 -0.003540 0.004510 0.012789 0.021293 0.030019 0.038962 0.048116 0.057477 0.067038 0.076795 0.086741 0.096871 0.107177 0.117654 0.128296 0.139094 0.150043 0.161135 0.172365 0.183724 0.195206 0.206803 0.218509 0.230317 0.242220 0.254210 0.266282 0.278428 0.290642 0.302917 0.315246 0.327624 0.340045 0.352501 0.364988 0.377500 0.390031 0.402576 0.415129 0.427685 0.440241 0.452790 0.465329 0.477853 0.490358 -0.039044 -0.032196 -0.025105 -0.017771 -0.010198 -0.002389 0.005654 0.013925 0.022422 0.031140 0.040074 0.049219 0.058571 0.068123 0.077870 0.087807 0.097926 0.108222 0.118688 0.129318 0.140106 0.151043 0.162124 0.173341 0.184688 0.196158 0.207743 0.219436 0.231232 0.243121 0.255099 0.267158 0.279291 0.291491 0.303753 0.316069 0.328434 0.340841 0.353284 0.365758 0.378257 0.390774 0.403306 0.415846 0.428390 0.440932 0.453468 0.465994 0.478506 0.490998 -0.037713 -0.030872 -0.023787 -0.016460 -0.008894 -0.001093 0.006942 0.015205 0.023693 0.032401 0.041326 0.050461 0.059802 0.069344 0.079080 0.089005 0.099113 0.109397 0.119851 0.130469 0.141244 0.152168 0.163236 0.174440 0.185773 0.197229 0.208800 0.220479 0.232260 0.244136 0.256099 0.268143 0.280261 0.292446 0.304693 0.316995 0.329344 0.341737 0.354165 0.366624 0.379107 0.391610 0.404127 0.416652 0.429181 0.441709 0.454231 0.466743 0.479240 0.491719 -0.036234 -0.029400 -0.022322 -0.015003 -0.007445 0.000348 0.008373 0.016627 0.025105 0.033803 0.042717 0.051841 0.061171 0.070701 0.080425 0.090337 0.100432 0.110703 0.121144 0.131748 0.142508 0.153418 0.164471 0.175660 0.186978 0.198419 0.209974 0.221638 0.233403 0.245262 0.257209 0.269236 0.281338 0.293507 0.305737 0.318022 0.330355 0.342731 0.355143 0.367585 0.380052 0.392538 0.405038 0.417547 0.430060 0.442572 0.455078 0.467574 0.480055 0.492518 -0.034607 -0.027780 -0.020710 -0.013399 -0.005851 0.001933 0.009948 0.018191 0.026659 0.035346 0.044248 0.053360 0.062677 0.072194 0.081904 0.091803 0.101884 0.112140 0.122566 0.133154 0.143899 0.154793 0.165830 0.177002 0.188304 0.199727 0.211265 0.222912 0.234659 0.246500 0.258429 0.270439 0.282523 0.294674 0.306885 0.319152 0.331467 0.343824 0.356217 0.368641 0.381090 0.393558 0.406040 0.418531 0.431026 0.443520 0.456009 0.468487 0.480951 0.493397 -0.032830 -0.026012 -0.018951 -0.011650 -0.004111 0.003663 0.011667 0.019899 0.028354 0.037029 0.045918 0.055017 0.064320 0.073823 0.083518 0.093402 0.103467 0.113707 0.124117 0.134688 0.145416 0.156293 0.167312 0.178466 0.189749 0.201154 0.212674 0.224301 0.236029 0.247851 0.259760 0.271750 0.283814 0.295945 0.308137 0.320383 0.332678 0.345015 0.357389 0.369793 0.382222 0.394670 0.407132 0.419604 0.432079 0.444554 0.457023 0.469483 0.481928 0.494355 -0.030906 -0.024096 -0.017044 -0.009753 -0.002225 0.005537 0.013530 0.021749 0.030192 0.038853 0.047728 0.056812 0.066101 0.075587 0.085267 0.095134 0.105182 0.115405 0.125797 0.136350 0.147059 0.157917 0.168917 0.180052 0.191315 0.202700 0.214198 0.225805 0.237512 0.249313 0.261201 0.273170 0.285212 0.297322 0.309492 0.321717 0.333990 0.346305 0.358657 0.371039 0.383446 0.395873 0.408314 0.420764 0.433219 0.445672 0.458121 0.470560 0.482985 0.495392 -0.028833 -0.022032 -0.014991 -0.007710 -0.000194 0.007556 0.015536 0.023742 0.032171 0.040818 0.049678 0.058746 0.068018 0.077488 0.087151 0.097000 0.107030 0.117234 0.127606 0.138140 0.148829 0.159666 0.170645 0.181759 0.193000 0.204363 0.215840 0.227424 0.239109 0.250887 0.262752 0.274697 0.286716 0.298803 0.310950 0.323151 0.335401 0.347693 0.360021 0.372380 0.384764 0.397168 0.409586 0.422013 0.434445 0.446876 0.459302 0.471719 0.484122 0.496507 -0.026611 -0.019821 -0.012790 -0.005521 0.001983 0.009720 0.017686 0.025878 0.034292 0.042923 0.051767 0.060818 0.070073 0.079525 0.089169 0.098998 0.109009 0.119192 0.129544 0.140057 0.150724 0.161539 0.172496 0.183587 0.194805 0.206144 0.217597 0.229157 0.240818 0.252572 0.264412 0.276333 0.288327 0.300388 0.312510 0.324686 0.336911 0.349178 0.361481 0.373815 0.386174 0.398553 0.410946 0.423349 0.435756 0.448163 0.460566 0.472959 0.485338 0.497701 -0.024241 -0.017462 -0.010443 -0.003186 0.004305 0.012028 0.019980 0.028157 0.036554 0.045168 0.053995 0.063028 0.072264 0.081697 0.091321 0.101130 0.111119 0.121281 0.131610 0.142101 0.152745 0.163536 0.174469 0.185535 0.196729 0.208043 0.219471 0.231005 0.242640 0.254367 0.266182 0.278076 0.290043 0.302078 0.314173 0.326322 0.338520 0.350760 0.363037 0.375344 0.387677 0.400029 0.412396 0.424773 0.437154 0.449535 0.461912 0.474279 0.486634 0.498972 -0.021723 -0.014955 -0.007949 -0.000705 0.006772 0.014481 0.022417 0.030577 0.038957 0.047554 0.056362 0.065376 0.074592 0.084004 0.093606 0.103394 0.113360 0.123499 0.133805 0.144271 0.154890 0.165657 0.176564 0.187604 0.198772 0.210059 0.221460 0.232967 0.244573 0.256273 0.268060 0.279926 0.291865 0.303871 0.315938 0.328059 0.340228 0.352439 0.364688 0.376966 0.389271 0.401595 0.413934 0.426283 0.438637 0.450990 0.463340 0.475681 0.488009 0.500320 -0.019057 -0.012302 -0.005308 0.001921 0.009384 0.017077 0.024996 0.033139 0.041502 0.050079 0.058867 0.067861 0.077056 0.086446 0.096026 0.105790 0.115732 0.125847 0.136128 0.146568 0.157161 0.167901 0.178780 0.189793 0.200932 0.212191 0.223563 0.235041 0.246619 0.258289 0.270046 0.281882 0.293791 0.305767 0.317804 0.329894 0.342034 0.354215 0.366433 0.378682 0.390956 0.403251 0.415560 0.427880 0.440204 0.452529 0.464850 0.477163 0.489463 0.501746 -0.016245 -0.009502 -0.002522 0.004693 0.012140 0.019816 0.027718 0.035843 0.044186 0.052744 0.061511 0.070483 0.079655 0.089022 0.098578 0.108318 0.118235 0.128323 0.138577 0.148990 0.159556 0.170267 0.181118 0.192102 0.203211 0.214440 0.225782 0.237229 0.248776 0.260415 0.272140 0.283944 0.295822 0.307766 0.319771 0.331830 0.343937 0.356086 0.368273 0.380490 0.392733 0.404996 0.417274 0.429562 0.441856 0.454151 0.466441 0.478724 0.490995 0.503249 -0.013286 -0.006556 0.000409 0.007609 0.015039 0.022698 0.030582 0.038688 0.047011 0.055547 0.064292 0.073241 0.082390 0.091732 0.101263 0.110976 0.120867 0.130928 0.141154 0.151538 0.162074 0.172756 0.183576 0.194529 0.205607 0.216804 0.228114 0.239529 0.251043 0.262649 0.274341 0.286112 0.297956 0.309867 0.321838 0.333864 0.345937 0.358053 0.370206 0.382390 0.394599 0.406829 0.419075 0.431331 0.443592 0.455855 0.468114 0.480365 0.492604 0.504828 -0.010181 -0.003465 0.003485 0.010669 0.018082 0.025723 0.033587 0.041672 0.049974 0.058488 0.067210 0.076135 0.085259 0.094575 0.104080 0.113766 0.123628 0.133660 0.143856 0.154210 0.164715 0.175366 0.186154 0.197074 0.208120 0.219284 0.230559 0.241940 0.253420 0.264992 0.276649 0.288385 0.300194 0.312070 0.324005 0.335995 0.348034 0.360115 0.372232 0.384381 0.396556 0.408751 0.420962 0.433184 0.445412 0.457640 0.469866 0.482084 0.494291 0.506483 -0.006931 -0.000230 0.006705 0.013871 0.021267 0.028888 0.036732 0.044796 0.053076 0.061566 0.070264 0.079164 0.088261 0.097551 0.107027 0.116684 0.126517 0.136519 0.146684 0.157006 0.167479 0.178096 0.188851 0.199737 0.210748 0.221877 0.233117 0.244463 0.255906 0.267442 0.279062 0.290762 0.302534 0.314373 0.326272 0.338225 0.350226 0.362270 0.374351 0.386464 0.398602 0.410761 0.422936 0.435122 0.447314 0.459508 0.471699 0.483883 0.496055 0.508213 -0.003537 0.003149 0.010067 0.017216 0.024592 0.032194 0.040017 0.048059 0.056315 0.064781 0.073453 0.082327 0.091397 0.100658 0.110105 0.119732 0.129533 0.139503 0.149636 0.159925 0.170364 0.180946 0.191666 0.202517 0.213491 0.224584 0.235787 0.247095 0.258501 0.269998 0.281581 0.293242 0.304976 0.316776 0.328637 0.340551 0.352514 0.364519 0.376562 0.388636 0.400736 0.412858 0.424995 0.437144 0.449299 0.461456 0.473611 0.485759 0.497896 0.510019 -0.000000 0.006670 0.013571 0.020701 0.028058 0.035639 0.043440 0.051458 0.059690 0.068131 0.076777 0.085622 0.094664 0.103895 0.113311 0.122907 0.132676 0.142613 0.152711 0.162966 0.173369 0.183916 0.194599 0.205412 0.216349 0.227403 0.238568 0.249837 0.261203 0.272661 0.284204 0.295825 0.307519 0.319279 0.331099 0.342973 0.354896 0.366861 0.378864 0.390898 0.402959 0.415041 0.427139 0.439249 0.451366 0.463484 0.475601 0.487712 0.499812 0.511899 0.006670 0.013379 0.020319 0.027488 0.034884 0.042503 0.050343 0.058399 0.066668 0.075147 0.083830 0.092712 0.101790 0.111057 0.120508 0.130139 0.139942 0.149913 0.160045 0.170331 0.180767 0.191344 0.202058 0.212901 0.223867 0.234949 0.246141 0.257436 0.268828 0.280310 0.291876 0.303520 0.315235 0.327015 0.338854 0.350746 0.362686 0.374667 0.386684 0.398731 0.410803 0.422896 0.435003 0.447121 0.459244 0.471368 0.483488 0.495601 0.507703 0.519789 0.003149 0.009874 0.016832 0.024019 0.031435 0.039075 0.046937 0.055017 0.063311 0.071815 0.080525 0.089435 0.098541 0.107838 0.117321 0.126983 0.136819 0.146823 0.156989 0.167311 0.177782 0.188396 0.199146 0.210027 0.221031 0.232151 0.243382 0.254716 0.266148 0.277670 0.289276 0.300960 0.312715 0.324535 0.336415 0.348347 0.360327 0.372348 0.384405 0.396492 0.408604 0.420736 0.432883 0.445039 0.457201 0.469363 0.481521 0.493672 0.505810 0.517933 -0.000230 0.006511 0.013485 0.020691 0.028125 0.035786 0.043669 0.051771 0.060089 0.068618 0.077353 0.086290 0.095424 0.104750 0.114262 0.123954 0.133822 0.143858 0.154056 0.164412 0.174917 0.185565 0.196351 0.207268 0.218308 0.229465 0.240733 0.252105 0.263574 0.275134 0.286779 0.298501 0.310295 0.322154 0.334072 0.346043 0.358062 0.370121 0.382217 0.394342 0.406492 0.418662 0.430846 0.443040 0.455239 0.467438 0.479632 0.491819 0.503993 0.516150 -0.003465 0.003290 0.010281 0.017503 0.024956 0.032636 0.040540 0.048664 0.057004 0.065556 0.074316 0.083278 0.092439 0.101792 0.111332 0.121053 0.130951 0.141017 0.151247 0.161634 0.172172 0.182854 0.193674 0.204624 0.215699 0.226891 0.238195 0.249603 0.261108 0.272705 0.284386 0.296145 0.307975 0.319871 0.331827 0.343835 0.355890 0.367987 0.380119 0.392281 0.404468 0.416674 0.428895 0.441124 0.453358 0.465592 0.477822 0.490043 0.502251 0.514442 -0.006556 0.000214 0.007219 0.014458 0.021929 0.029627 0.037550 0.045694 0.054056 0.062631 0.071414 0.080401 0.089586 0.098965 0.108532 0.118281 0.128207 0.138303 0.148562 0.158980 0.169549 0.180262 0.191114 0.202097 0.213205 0.224431 0.235768 0.247210 0.258750 0.270382 0.282097 0.293892 0.305758 0.317689 0.329680 0.341723 0.353814 0.365946 0.378113 0.390311 0.402532 0.414773 0.427028 0.439292 0.451560 0.463827 0.476090 0.488344 0.500584 0.512808 -0.009502 -0.002719 0.004302 0.011556 0.019043 0.026759 0.034701 0.042865 0.051247 0.059843 0.068648 0.077658 0.086867 0.096271 0.105864 0.115639 0.125591 0.135715 0.146003 0.156449 0.167048 0.177791 0.188673 0.199688 0.210827 0.222085 0.233454 0.244929 0.256502 0.268166 0.279915 0.291743 0.303642 0.315607 0.327631 0.339709 0.351833 0.363999 0.376200 0.388430 0.400685 0.412959 0.425247 0.437543 0.449844 0.462144 0.474438 0.486723 0.498995 0.511249 -0.012302 -0.005506 0.001529 0.008798 0.016301 0.024033 0.031993 0.040175 0.048576 0.057193 0.066019 0.075051 0.084283 0.093710 0.103327 0.113127 0.123105 0.133254 0.143569 0.154043 0.164669 0.175441 0.186353 0.197396 0.208565 0.219853 0.231253 0.242759 0.254363 0.266058 0.277839 0.289698 0.301630 0.313626 0.325683 0.337792 0.349948 0.362146 0.374379 0.386641 0.398928 0.411233 0.423552 0.435880 0.448211 0.460541 0.472866 0.485181 0.497482 0.509765 -0.014955 -0.008147 -0.001099 0.006184 0.013702 0.021450 0.029426 0.037626 0.046046 0.054681 0.063527 0.072580 0.081833 0.091282 0.100922 0.110746 0.120748 0.130922 0.141262 0.151762 0.162414 0.173213 0.184152 0.195223 0.206421 0.217737 0.229166 0.240701 0.252334 0.264059 0.275870 0.287759 0.299720 0.311747 0.323834 0.335974 0.348160 0.360388 0.372651 0.384944 0.397260 0.409595 0.421944 0.434301 0.446661 0.459020 0.471374 0.483717 0.496047 0.508357 -0.017462 -0.010642 -0.003582 0.003715 0.011247 0.019010 0.027002 0.035218 0.043655 0.052308 0.061173 0.070245 0.079519 0.088989 0.098650 0.108496 0.118520 0.128718 0.139082 0.149606 0.160283 0.171108 0.182072 0.193169 0.204393 0.215737 0.227193 0.238755 0.250416 0.262169 0.274008 0.285925 0.297915 0.309971 0.322086 0.334254 0.346469 0.358726 0.371017 0.383338 0.395683 0.408046 0.420423 0.432808 0.445196 0.457582 0.469963 0.482333 0.494689 0.507026 -0.019821 -0.012990 -0.005918 0.001391 0.008936 0.016714 0.024720 0.032952 0.041405 0.050075 0.058958 0.068048 0.077340 0.086830 0.096511 0.106377 0.116423 0.126643 0.137029 0.147576 0.158277 0.169125 0.180113 0.191235 0.202484 0.213853 0.225334 0.236922 0.248609 0.260388 0.272254 0.284198 0.296214 0.308297 0.320439 0.332634 0.344876 0.357159 0.369477 0.381825 0.394196 0.406586 0.418989 0.431400 0.443814 0.456227 0.468633 0.481028 0.493409 0.505771 -0.022032 -0.015191 -0.008108 -0.000787 0.006770 0.014561 0.022581 0.030827 0.039296 0.047981 0.056880 0.065988 0.075298 0.084806 0.094505 0.104391 0.114457 0.124697 0.135104 0.145672 0.156395 0.167265 0.178276 0.189421 0.200693 0.212085 0.223590 0.235202 0.246914 0.258718 0.270608 0.282577 0.294618 0.306726 0.318893 0.331113 0.343380 0.355689 0.368032 0.380405 0.392801 0.405216 0.417644 0.430079 0.442517 0.454954 0.467384 0.479803 0.492208 0.504593 -0.024096 -0.017245 -0.010152 -0.002820 0.004749 0.012552 0.020585 0.028845 0.037327 0.046028 0.054942 0.064065 0.073391 0.082916 0.092633 0.102537 0.112621 0.122880 0.133307 0.143895 0.154637 0.165528 0.176560 0.187726 0.199020 0.210434 0.221962 0.233596 0.245330 0.257157 0.269070 0.281062 0.293127 0.305258 0.317448 0.329692 0.341983 0.354315 0.366682 0.379078 0.391498 0.403935 0.416386 0.428845 0.441306 0.453765 0.466217 0.478659 0.491085 0.503492 -0.026012 -0.019152 -0.012049 -0.004707 0.002873 0.010687 0.018732 0.027004 0.035499 0.044214 0.053142 0.062280 0.071621 0.081162 0.090895 0.100816 0.110917 0.121193 0.131638 0.142244 0.153005 0.163915 0.174967 0.186153 0.197466 0.208901 0.220449 0.232104 0.243859 0.255707 0.267642 0.279655 0.291742 0.303894 0.316106 0.328372 0.340684 0.353038 0.365427 0.377844 0.390286 0.402745 0.415217 0.427697 0.440179 0.452659 0.465133 0.477595 0.490041 0.502468 -0.027780 -0.020911 -0.013800 -0.006448 0.001141 0.008966 0.017022 0.025306 0.033813 0.042540 0.051481 0.060632 0.069988 0.079543 0.089291 0.099226 0.109344 0.119636 0.130097 0.140720 0.151499 0.162426 0.173495 0.184700 0.196032 0.207485 0.219052 0.230726 0.242501 0.254368 0.266322 0.278355 0.290462 0.302634 0.314866 0.327152 0.339485 0.351858 0.364267 0.376705 0.389166 0.401645 0.414137 0.426637 0.439138 0.451638 0.464130 0.476611 0.489077 0.501522 -0.029400 -0.022524 -0.015404 -0.008044 -0.000445 0.007389 0.015455 0.023749 0.032267 0.041006 0.049959 0.059122 0.068491 0.078059 0.087820 0.097770 0.107902 0.118208 0.128685 0.139323 0.150118 0.161061 0.172146 0.183367 0.194716 0.206186 0.217771 0.229463 0.241255 0.253140 0.265112 0.277163 0.289288 0.301479 0.313729 0.326033 0.338384 0.350776 0.363203 0.375659 0.388139 0.400636 0.413146 0.425664 0.438184 0.450701 0.463211 0.475709 0.488192 0.500655 -0.030872 -0.023989 -0.016862 -0.009494 -0.001887 0.005956 0.014031 0.022335 0.030863 0.039611 0.048575 0.057750 0.067130 0.076710 0.086484 0.096446 0.106591 0.116911 0.127401 0.138053 0.148862 0.159820 0.170920 0.182156 0.193520 0.205006 0.216606 0.228314 0.240122 0.2520