# vtk DataFile Version 3.0
vtk output
ASCII
DATASET STRUCTURED_POINTS
DIMENSIONS 50 50 50
SPACING 0.020408 0.020408 0.020408
ORIGIN 0.000000 0.000000 0.000000
POINT_DATA 125000
SCALARS RTData float
LOOKUP_TABLE default
0.000000 0.003514 0.007253 0.011215 0.015398 0.019801 0.024422 0.029256 0.034303 0.039558 0.045018 0.050679 0.056537 0.062587 0.068826 0.075248 0.081849 0.088623 0.095566 0.102672 0.109936 0.117352 0.124916 0.132621 0.140461 0.148432 0.156528 0.164743 0.173072 0.181510 0.190050 0.198689 0.207419 0.216238 0.225138 0.234116 0.243167 0.252286 0.261468 0.270709 0.280004 0.289349 0.298741 0.308175 0.317647 0.327154 0.336692 0.346258 0.355848 0.365459 0.003514 0.007045 0.010801 0.014780 0.018980 0.023400 0.028036 0.032888 0.037950 0.043221 0.048696 0.054372 0.060245 0.066310 0.072564 0.079000 0.085615 0.092403 0.099359 0.106478 0.113754 0.121183 0.128758 0.136475 0.144327 0.152308 0.160415 0.168640 0.176979 0.185425 0.193975 0.202621 0.211360 0.220186 0.229093 0.238078 0.247134 0.256259 0.265446 0.274691 0.283990 0.293339 0.302734 0.312170 0.321645 0.331153 0.340692 0.350258 0.359847 0.369458 0.007253 0.010801 0.014573 0.018569 0.022785 0.027221 0.031873 0.036740 0.041817 0.047103 0.052593 0.058283 0.064169 0.070248 0.076514 0.082963 0.089590 0.096390 0.103358 0.110488 0.117775 0.125215 0.132800 0.140526 0.148387 0.156377 0.164492 0.172725 0.181071 0.189525 0.198081 0.206734 0.215478 0.224309 0.233221 0.242210 0.251271 0.260398 0.269588 0.278836 0.288137 0.297487 0.306883 0.316320 0.325794 0.335301 0.344839 0.354403 0.363991 0.373598 0.011215 0.014780 0.018569 0.022580 0.026813 0.031264 0.035931 0.040812 0.045904 0.051203 0.056706 0.062409 0.068308 0.074399 0.080676 0.087136 0.093774 0.100584 0.107562 0.114702 0.121998 0.129445 0.137039 0.144772 0.152641 0.160638 0.168759 0.176998 0.185349 0.193808 0.202368 0.211025 0.219773 0.228607 0.237522 0.246513 0.255575 0.264704 0.273894 0.283142 0.292443 0.301792 0.311187 0.320622 0.330093 0.339598 0.349133 0.358693 0.368276 0.377879 0.015398 0.018980 0.022785 0.026813 0.031060 0.035526 0.040207 0.045102 0.050207 0.055519 0.061034 0.066749 0.072659 0.078760 0.085048 0.091518 0.098165 0.104984 0.111969 0.119116 0.126420 0.133874 0.141474 0.149213 0.157086 0.165088 0.173213 0.181456 0.189811 0.198272 0.206835 0.215493 0.224243 0.233078 0.241993 0.250984 0.260045 0.269173 0.278362 0.287608 0.296906 0.306253 0.315644 0.325075 0.334542 0.344042 0.353571 0.363126 0.372703 0.382299 0.019801 0.023400 0.027221 0.031264 0.035526 0.040006 0.044701 0.049609 0.054726 0.060049 0.065576 0.071301 0.077221 0.083331 0.089628 0.096106 0.102760 0.109586 0.116578 0.123731 0.131040 0.138499 0.146102 0.153845 0.161722 0.169726 0.177854 0.186098 0.194454 0.202916 0.211479 0.220137 0.228886 0.237719 0.246633 0.255622 0.264680 0.273805 0.282990 0.292232 0.301526 0.310867 0.320253 0.329678 0.339139 0.348632 0.358154 0.367701 0.377269 0.386857 0.024422 0.028036 0.031873 0.035931 0.040207 0.044701 0.049409 0.054329 0.059457 0.064791 0.070328 0.076062 0.081991 0.088109 0.094413 0.100897 0.107558 0.114389 0.121385 0.128543 0.135855 0.143317 0.150923 0.158667 0.166545 0.174550 0.182678 0.190922 0.199277 0.207737 0.216298 0.224954 0.233700 0.242530 0.251440 0.260424 0.269478 0.278597 0.287777 0.297012 0.306299 0.315634 0.325012 0.334429 0.343881 0.353365 0.362878 0.372415 0.381973 0.391550 0.029256 0.032888 0.036740 0.040812 0.045102 0.049609 0.054329 0.059260 0.064399 0.069743 0.075288 0.081030 0.086966 0.093091 0.099401 0.105890 0.112555 0.119390 0.126390 0.133549 0.140863 0.148326 0.155932 0.163677 0.171554 0.179558 0.187683 0.195925 0.204277 0.212734 0.221291 0.229942 0.238683 0.247507 0.256411 0.265389 0.274436 0.283548 0.292720 0.301947 0.311225 0.320550 0.329918 0.339325 0.348767 0.358241 0.367741 0.377267 0.386813 0.396377 0.034303 0.037950 0.041817 0.045904 0.050207 0.054726 0.059457 0.064399 0.069547 0.074900 0.080453 0.086202 0.092144 0.098275 0.104589 0.111082 0.117749 0.124586 0.131587 0.138748 0.146061 0.153524 0.161129 0.168871 0.176745 0.184746 0.192868 0.201105 0.209452 0.217903 0.226454 0.235099 0.243832 0.252649 0.261545 0.270514 0.279552 0.288655 0.297816 0.307033 0.316301 0.325615 0.334971 0.344366 0.353795 0.363255 0.372743 0.382254 0.391786 0.401336 0.039558 0.043221 0.047103 0.051203 0.055519 0.060049 0.064791 0.069743 0.074900 0.080260 0.085820 0.091575 0.097522 0.103656 0.109973 0.116469 0.123138 0.129975 0.136976 0.144135 0.151447 0.158907 0.166508 0.174247 0.182117 0.190112 0.198228 0.206459 0.214799 0.223243 0.231786 0.240422 0.249146 0.257953 0.266839 0.275797 0.284824 0.293915 0.303065 0.312269 0.321524 0.330824 0.340167 0.349548 0.358963 0.368408 0.377880 0.387376 0.396892 0.406425 0.045018 0.048696 0.052593 0.056706 0.061034 0.065576 0.070328 0.075288 0.080453 0.085820 0.091385 0.097145 0.103096 0.109233 0.115552 0.122048 0.128716 0.135553 0.142552 0.149708 0.157017 0.164472 0.172069 0.179802 0.187665 0.195654 0.203762 0.211984 0.220315 0.228749 0.237282 0.245907 0.254621 0.263416 0.272289 0.281235 0.290249 0.299326 0.308462 0.317652 0.326892 0.336177 0.345504 0.354869 0.364267 0.373696 0.383151 0.392629 0.402127 0.411641 0.050679 0.054372 0.058283 0.062409 0.066749 0.071301 0.076062 0.081030 0.086202 0.091575 0.097145 0.102909 0.108862 0.115000 0.121319 0.127815 0.134482 0.141316 0.148311 0.155463 0.162767 0.170216 0.177806 0.185532 0.193387 0.201366 0.209465 0.217677 0.225997 0.234420 0.242941 0.251553 0.260253 0.269035 0.277895 0.286826 0.295825 0.304886 0.314006 0.323180 0.332402 0.341671 0.350980 0.360327 0.369707 0.379116 0.388552 0.398011 0.407489 0.416983 0.056537 0.060245 0.064169 0.068308 0.072659 0.077221 0.081991 0.086966 0.092144 0.097522 0.103096 0.108862 0.114816 0.120955 0.127273 0.133767 0.140431 0.147261 0.154251 0.161397 0.168694 0.176136 0.183717 0.191434 0.199279 0.207247 0.215335 0.223535 0.231842 0.240252 0.248758 0.257357 0.266041 0.274808 0.283651 0.292566 0.301548 0.310592 0.319693 0.328849 0.338053 0.347302 0.356592 0.365918 0.375278 0.384667 0.394082 0.403519 0.412976 0.422448 0.062587 0.066310 0.070248 0.074399 0.078760 0.083331 0.088109 0.093091 0.098275 0.103656 0.109233 0.115000 0.120955 0.127092 0.133408 0.139899 0.146558 0.153383 0.160367 0.167506 0.174794 0.182227 0.189798 0.197503 0.205337 0.213293 0.221367 0.229553 0.237846 0.246241 0.254731 0.263313 0.271981 0.280730 0.289555 0.298452 0.307415 0.316439 0.325521 0.334656 0.343840 0.353068 0.362336 0.371641 0.380979 0.390345 0.399738 0.409152 0.418585 0.428034 0.068826 0.072564 0.076514 0.080676 0.085048 0.089628 0.094413 0.099401 0.104589 0.109973 0.115552 0.121319 0.127273 0.133408 0.139721 0.146207 0.152861 0.159679 0.166655 0.173785 0.181063 0.188485 0.196045 0.203738 0.211558 0.219500 0.227559 0.235729 0.244006 0.252383 0.260857 0.269420 0.278070 0.286799 0.295605 0.304481 0.313423 0.322426 0.331487 0.340600 0.349761 0.358966 0.368211 0.377492 0.386806 0.396149 0.405516 0.414906 0.424314 0.433737 0.075248 0.079000 0.082963 0.087136 0.091518 0.096106 0.100897 0.105890 0.111082 0.116469 0.122048 0.127815 0.133767 0.139899 0.146207 0.152687 0.159334 0.166144 0.173111 0.180230 0.187497 0.194907 0.202454 0.210132 0.217937 0.225863 0.233906 0.242059 0.250317 0.258676 0.267130 0.275674 0.284303 0.293011 0.301795 0.310649 0.319569 0.328549 0.337586 0.346675 0.355812 0.364993 0.374213 0.383469 0.392757 0.402074 0.411415 0.420778 0.430159 0.439555 0.081849 0.085615 0.089590 0.093774 0.098165 0.102760 0.107558 0.112555 0.117749 0.123138 0.128716 0.134482 0.140431 0.146558 0.152861 0.159334 0.165973 0.172773 0.179730 0.186838 0.194092 0.201488 0.209020 0.216682 0.224471 0.232380 0.240404 0.248538 0.256777 0.265115 0.273548 0.282070 0.290677 0.299363 0.308123 0.316954 0.325849 0.334805 0.343816 0.352880 0.361991 0.371145 0.380339 0.389568 0.398829 0.408118 0.417431 0.426766 0.436118 0.445486 0.088623 0.092403 0.096390 0.100584 0.104984 0.109586 0.114389 0.119390 0.124586 0.129975 0.135553 0.141316 0.147261 0.153383 0.159679 0.166144 0.172773 0.179563 0.186507 0.193602 0.200842 0.208223 0.215739 0.223384 0.231155 0.239045 0.247049 0.255163 0.263380 0.271697 0.280107 0.288606 0.297189 0.305850 0.314586 0.323390 0.332260 0.341189 0.350174 0.359210 0.368294 0.377420 0.386585 0.395786 0.405018 0.414277 0.423561 0.432866 0.442188 0.451526 0.095566 0.099359 0.103358 0.107562 0.111969 0.116578 0.121385 0.126390 0.131587 0.136976 0.142552 0.148311 0.154251 0.160367 0.166655 0.173111 0.179730 0.186507 0.193439 0.200519 0.207744 0.215108 0.222606 0.230233 0.237984 0.245854 0.253837 0.261929 0.270123 0.278416 0.286802 0.295276 0.303834 0.312469 0.321178 0.329956 0.338798 0.347699 0.356655 0.365663 0.374717 0.383814 0.392949 0.402119 0.411321 0.420549 0.429802 0.439076 0.448366 0.457672 0.102672 0.106478 0.110488 0.114702 0.119116 0.123731 0.128543 0.133549 0.138748 0.144135 0.149708 0.155463 0.161397 0.167506 0.173785 0.180230 0.186838 0.193602 0.200519 0.207585 0.214793 0.222139 0.229618 0.237225 0.244955 0.252803 0.260764 0.268832 0.277002 0.285270 0.293630 0.302078 0.310608 0.319216 0.327897 0.336646 0.345459 0.354330 0.363257 0.372234 0.381257 0.390323 0.399427 0.408565 0.417734 0.426931 0.436151 0.445392 0.454649 0.463921 0.109936 0.113754 0.117775 0.121998 0.126420 0.131040 0.135855 0.140863 0.146061 0.151447 0.157017 0.162767 0.168694 0.174794 0.181063 0.187497 0.194092 0.200842 0.207744 0.214793 0.221983 0.229310 0.236769 0.244355 0.252063 0.259887 0.267824 0.275867 0.284012 0.292253 0.300586 0.309006 0.317508 0.326087 0.334738 0.343457 0.352239 0.361080 0.369975 0.378920 0.387911 0.396944 0.406015 0.415120 0.424256 0.433418 0.442605 0.451811 0.461034 0.470271 0.117352 0.121183 0.125215 0.129445 0.133874 0.138499 0.143317 0.148326 0.153524 0.158907 0.164472 0.170216 0.176136 0.182227 0.188485 0.194907 0.201488 0.208223 0.215108 0.222139 0.229310 0.236617 0.244054 0.251618 0.259302 0.267102 0.275014 0.283031 0.291148 0.299362 0.307667 0.316057 0.324529 0.333078 0.341698 0.350385 0.359135 0.367943 0.376806 0.385717 0.394675 0.403674 0.412710 0.421781 0.430881 0.440009 0.449159 0.458330 0.467517 0.476718 0.124916 0.128758 0.132800 0.137039 0.141474 0.146102 0.150923 0.155932 0.161129 0.166508 0.172069 0.177806 0.183717 0.189798 0.196045 0.202454 0.209020 0.215739 0.222606 0.229618 0.236769 0.244054 0.251469 0.259009 0.266669 0.274444 0.282328 0.290318 0.298407 0.306592 0.314866 0.323226 0.331667 0.340184 0.348772 0.357426 0.366143 0.374917 0.383745 0.392622 0.401544 0.410508 0.419509 0.428543 0.437607 0.446698 0.455812 0.464945 0.474095 0.483259 0.132621 0.136475 0.140526 0.144772 0.149213 0.153845 0.158667 0.163677 0.168871 0.174247 0.179802 0.185532 0.191434 0.197503 0.203738 0.210132 0.216682 0.223384 0.230233 0.237225 0.244355 0.251618 0.259009 0.266524 0.274158 0.281906 0.289763 0.297723 0.305783 0.313938 0.322181 0.330510 0.338918 0.347401 0.355955 0.364576 0.373258 0.381997 0.390789 0.399630 0.408516 0.417443 0.426406 0.435403 0.444430 0.453483 0.462559 0.471654 0.480765 0.489890 0.140461 0.144327 0.148387 0.152641 0.157086 0.161722 0.166545 0.171554 0.176745 0.182117 0.187665 0.193387 0.199279 0.205337 0.211558 0.217937 0.224471 0.231155 0.237984 0.244955 0.252063 0.259302 0.266669 0.274158 0.281765 0.289485 0.297313 0.305244 0.313273 0.321396 0.329607 0.337902 0.346277 0.354726 0.363245 0.371830 0.380476 0.389179 0.397934 0.406738 0.415586 0.424475 0.433400 0.442359 0.451346 0.460360 0.469396 0.478452 0.487524 0.496609 0.148432 0.152308 0.156377 0.160638 0.165088 0.169726 0.174550 0.179558 0.184746 0.190112 0.195654 0.201366 0.207247 0.213293 0.219500 0.225863 0.232380 0.239045 0.245854 0.252803 0.259887 0.267102 0.274444 0.281906 0.289485 0.297176 0.304974 0.312874 0.320871 0.328961 0.337139 0.345400 0.353740 0.362153 0.370637 0.379185 0.387794 0.396459 0.405176 0.413941 0.422751 0.431600 0.440486 0.449405 0.458353 0.467326 0.476322 0.485337 0.494368 0.503412 0.156528 0.160415 0.164492 0.168759 0.173213 0.177854 0.182678 0.187683 0.192868 0.198228 0.203762 0.209465 0.215335 0.221367 0.227559 0.233906 0.240404 0.247049 0.253837 0.260764 0.267824 0.275014 0.282328 0.289763 0.297313 0.304974 0.312740 0.320608 0.328573 0.336629 0.344773 0.352999 0.361302 0.369679 0.378125 0.386636 0.395206 0.403833 0.412511 0.421237 0.430006 0.438815 0.447661 0.456538 0.465445 0.474377 0.483331 0.492304 0.501293 0.510295 0.164743 0.168640 0.172725 0.176998 0.181456 0.186098 0.190922 0.195925 0.201105 0.206459 0.211984 0.217677 0.223535 0.229553 0.235729 0.242059 0.248538 0.255163 0.261929 0.268832 0.275867 0.283031 0.290318 0.297723 0.305244 0.312874 0.320608 0.328443 0.336374 0.344396 0.352504 0.360693 0.368960 0.377300 0.385707 0.394179 0.402710 0.411297 0.419935 0.428620 0.437348 0.446116 0.454920 0.463755 0.472620 0.481509 0.490420 0.499351 0.508296 0.517255 0.173072 0.176979 0.181071 0.185349 0.189811 0.194454 0.199277 0.204277 0.209452 0.214799 0.220315 0.225997 0.231842 0.237846 0.244006 0.250317 0.256777 0.263380 0.270123 0.277002 0.284012 0.291148 0.298407 0.305783 0.313273 0.320871 0.328573 0.336374 0.344270 0.352256 0.360327 0.368480 0.376709 0.385010 0.393378 0.401810 0.410301 0.418847 0.427443 0.436087 0.444773 0.453499 0.462259 0.471052 0.479873 0.488719 0.497587 0.506473 0.515375 0.524289 0.181510 0.185425 0.189525 0.193808 0.198272 0.202916 0.207737 0.212734 0.217903 0.223243 0.228749 0.234420 0.240252 0.246241 0.252383 0.258676 0.265115 0.271697 0.278416 0.285270 0.292253 0.299362 0.306592 0.313938 0.321396 0.328961 0.336629 0.344396 0.352256 0.360205 0.368240 0.376354 0.384544 0.392805 0.401134 0.409525 0.417975 0.426479 0.435033 0.443634 0.452277 0.460959 0.469676 0.478425 0.487202 0.496003 0.504826 0.513668 0.522525 0.531394 0.190050 0.193975 0.198081 0.202368 0.206835 0.211479 0.216298 0.221291 0.226454 0.231786 0.237282 0.242941 0.248758 0.254731 0.260857 0.267130 0.273548 0.280107 0.286802 0.293630 0.300586 0.307667 0.314866 0.322181 0.329607 0.337139 0.344773 0.352504 0.360327 0.368240 0.376236 0.384311 0.392461 0.400682 0.408970 0.417319 0.425727 0.434188 0.442699 0.451257 0.459856 0.468494 0.477166 0.485870 0.494602 0.503358 0.512136 0.520931 0.529742 0.538566 0.198689 0.202621 0.206734 0.211025 0.215493 0.220137 0.224954 0.229942 0.235099 0.240422 0.245907 0.251553 0.257357 0.263313 0.269420 0.275674 0.282070 0.288606 0.295276 0.302078 0.309006 0.316057 0.323226 0.330510 0.337902 0.345400 0.352999 0.360693 0.368480 0.376354 0.384311 0.392346 0.400456 0.408636 0.416882 0.425189 0.433553 0.441971 0.450439 0.458951 0.467506 0.476099 0.484726 0.493384 0.502070 0.510780 0.519511 0.528260 0.537025 0.545801 0.207419 0.211360 0.215478 0.219773 0.224243 0.228886 0.233700 0.238683 0.243832 0.249146 0.254621 0.260253 0.266041 0.271981 0.278070 0.284303 0.290677 0.297189 0.303834 0.310608 0.317508 0.324529 0.331667 0.338918 0.346277 0.353740 0.361302 0.368960 0.376709 0.384544 0.392461 0.400456 0.408525 0.416663 0.424866 0.433130 0.441450 0.449824 0.458247 0.466714 0.475223 0.483770 0.492351 0.500963 0.509602 0.518265 0.526949 0.535651 0.544368 0.553097 0.216238 0.220186 0.224309 0.228607 0.233078 0.237719 0.242530 0.247507 0.252649 0.257953 0.263416 0.269035 0.274808 0.280730 0.286799 0.293011 0.299363 0.305850 0.312469 0.319216 0.326087 0.333078 0.340184 0.347401 0.354726 0.362153 0.369679 0.377300 0.385010 0.392805 0.400682 0.408636 0.416663 0.424758 0.432918 0.441138 0.449414 0.457743 0.466120 0.474542 0.483004 0.491505 0.500039 0.508603 0.517195 0.525810 0.534446 0.543100 0.551769 0.560450 0.225138 0.229093 0.233221 0.237522 0.241993 0.246633 0.251440 0.256411 0.261545 0.266839 0.272289 0.277895 0.283651 0.289555 0.295605 0.301795 0.308123 0.314586 0.321178 0.327897 0.334738 0.341698 0.348772 0.355955 0.363245 0.370637 0.378125 0.385707 0.393378 0.401134 0.408970 0.416882 0.424866 0.432918 0.441033 0.449209 0.457440 0.465723 0.474054 0.482429 0.490845 0.499298 0.507784 0.516301 0.524844 0.533411 0.541999 0.550604 0.559224 0.567856 0.234116 0.238078 0.242210 0.246513 0.250984 0.255622 0.260424 0.265389 0.270514 0.275797 0.281235 0.286826 0.292566 0.298452 0.304481 0.310649 0.316954 0.323390 0.329956 0.336646 0.343457 0.350385 0.357426 0.364576 0.371830 0.379185 0.386636 0.394179 0.401810 0.409525 0.417319 0.425189 0.433130 0.441138 0.449209 0.457339 0.465524 0.473761 0.482045 0.490374 0.498742 0.507147 0.515585 0.524053 0.532548 0.541066 0.549604 0.558160 0.566730 0.575313 0.243167 0.247134 0.251271 0.255575 0.260045 0.264680 0.269478 0.274436 0.279552 0.284824 0.290249 0.295825 0.301548 0.307415 0.313423 0.319569 0.325849 0.332260 0.338798 0.345459 0.352239 0.359135 0.366143 0.373258 0.380476 0.387794 0.395206 0.402710 0.410301 0.417975 0.425727 0.433553 0.441450 0.449414 0.457440 0.465524 0.473663 0.481853 0.490090 0.498371 0.506691 0.515047 0.523437 0.531856 0.540301 0.548769 0.557258 0.565764 0.574285 0.582817 0.252286 0.256259 0.260398 0.264704 0.269173 0.273805 0.278597 0.283548 0.288655 0.293915 0.299326 0.304886 0.310592 0.316439 0.322426 0.328549 0.334805 0.341189 0.347699 0.354330 0.361080 0.367943 0.374917 0.381997 0.389179 0.396459 0.403833 0.411297 0.418847 0.426479 0.434188 0.441971 0.449824 0.457743 0.465723 0.473761 0.481853 0.489996 0.498185 0.506417 0.514689 0.522996 0.531336 0.539705 0.548101 0.556519 0.564958 0.573413 0.581883 0.590365 0.261468 0.265446 0.269588 0.273894 0.278362 0.282990 0.287777 0.292720 0.297816 0.303065 0.308462 0.314006 0.319693 0.325521 0.331487 0.337586 0.343816 0.350174 0.356655 0.363257 0.369975 0.376806 0.383745 0.390789 0.397934 0.405176 0.412511 0.419935 0.427443 0.435033 0.442699 0.450439 0.458247 0.466120 0.474054 0.482045 0.490090 0.498185 0.506326 0.514509 0.522731 0.530989 0.539280 0.547599 0.555944 0.564312 0.572699 0.581104 0.589523 0.597954 0.270709 0.274691 0.278836 0.283142 0.287608 0.292232 0.297012 0.301947 0.307033 0.312269 0.317652 0.323180 0.328849 0.334656 0.340600 0.346675 0.352880 0.359210 0.365663 0.372234 0.378920 0.385717 0.392622 0.399630 0.406738 0.413941 0.421237 0.428620 0.436087 0.443634 0.451257 0.458951 0.466714 0.474542 0.482429 0.490374 0.498371 0.506417 0.514509 0.522643 0.530816 0.539024 0.547264 0.555533 0.563827 0.572144 0.580480 0.588834 0.597201 0.605580 0.280004 0.283990 0.288137 0.292443 0.296906 0.301526 0.306299 0.311225 0.316301 0.321524 0.326892 0.332402 0.338053 0.343840 0.349761 0.355812 0.361991 0.368294 0.374717 0.381257 0.387911 0.394675 0.401544 0.408516 0.415586 0.422751 0.430006 0.437348 0.444773 0.452277 0.459856 0.467506 0.475223 0.483004 0.490845 0.498742 0.506691 0.514689 0.522731 0.530816 0.538939 0.547096 0.555286 0.563503 0.571747 0.580012 0.588297 0.596599 0.604915 0.613242 0.289349 0.293339 0.297487 0.301792 0.306253 0.310867 0.315634 0.320550 0.325615 0.330824 0.336177 0.341671 0.347302 0.353068 0.358966 0.364993 0.371145 0.377420 0.383814 0.390323 0.396944 0.403674 0.410508 0.417443 0.424475 0.431600 0.438815 0.446116 0.453499 0.460959 0.468494 0.476099 0.483770 0.491505 0.499298 0.507147 0.515047 0.522996 0.530989 0.539024 0.547096 0.555203 0.563342 0.571508 0.579700 0.587913 0.596147 0.604396 0.612660 0.620935 0.298741 0.302734 0.306883 0.311187 0.315644 0.320253 0.325012 0.329918 0.334971 0.340167 0.345504 0.350980 0.356592 0.362336 0.368211 0.374213 0.380339 0.386585 0.392949 0.399427 0.406015 0.412710 0.419509 0.426406 0.433400 0.440486 0.447661 0.454920 0.462259 0.469676 0.477166 0.484726 0.492351 0.500039 0.507784 0.515585 0.523437 0.531336 0.539280 0.547264 0.555286 0.563342 0.571429 0.579543 0.587683 0.595845 0.604026 0.612223 0.620435 0.628657 0.308175 0.312170 0.316320 0.320622 0.325075 0.329678 0.334429 0.339325 0.344366 0.349548 0.354869 0.360327 0.365918 0.371641 0.377492 0.383469 0.389568 0.395786 0.402119 0.408565 0.415120 0.421781 0.428543 0.435403 0.442359 0.449405 0.456538 0.463755 0.471052 0.478425 0.485870 0.493384 0.500963 0.508603 0.516301 0.524053 0.531856 0.539705 0.547599 0.555533 0.563503 0.571508 0.579543 0.587606 0.595694 0.603804 0.611932 0.620077 0.628236 0.636405 0.317647 0.321645 0.325794 0.330093 0.334542 0.339139 0.343881 0.348767 0.353795 0.358963 0.364267 0.369707 0.375278 0.380979 0.386806 0.392757 0.398829 0.405018 0.411321 0.417734 0.424256 0.430881 0.437607 0.444430 0.451346 0.458353 0.465445 0.472620 0.479873 0.487202 0.494602 0.502070 0.509602 0.517195 0.524844 0.532548 0.540301 0.548101 0.555944 0.563827 0.571747 0.579700 0.587683 0.595694 0.603730 0.611787 0.619862 0.627955 0.636060 0.644177 0.327154 0.331153 0.335301 0.339598 0.344042 0.348632 0.353365 0.358241 0.363255 0.368408 0.373696 0.379116 0.384667 0.390345 0.396149 0.402074 0.408118 0.414277 0.420549 0.426931 0.433418 0.440009 0.446698 0.453483 0.460360 0.467326 0.474377 0.481509 0.488719 0.496003 0.503358 0.510780 0.518265 0.525810 0.533411 0.541066 0.548769 0.556519 0.564312 0.572144 0.580012 0.587913 0.595845 0.603804 0.611787 0.619791 0.627814 0.635853 0.643906 0.651969 0.336692 0.340692 0.344839 0.349133 0.353571 0.358154 0.362878 0.367741 0.372743 0.377880 0.383151 0.388552 0.394082 0.399738 0.405516 0.411415 0.417431 0.423561 0.429802 0.436151 0.442605 0.449159 0.455812 0.462559 0.469396 0.476322 0.483331 0.490420 0.497587 0.504826 0.512136 0.519511 0.526949 0.534446 0.541999 0.549604 0.557258 0.564958 0.572699 0.580480 0.588297 0.596147 0.604026 0.611932 0.619862 0.627814 0.635784 0.643770 0.651769 0.659780 0.346258 0.350258 0.354403 0.358693 0.363126 0.367701 0.372415 0.377267 0.382254 0.387376 0.392629 0.398011 0.403519 0.409152 0.414906 0.420778 0.426766 0.432866 0.439076 0.445392 0.451811 0.458330 0.464945 0.471654 0.478452 0.485337 0.492304 0.499351 0.506473 0.513668 0.520931 0.528260 0.535651 0.543100 0.550604 0.558160 0.565764 0.573413 0.581104 0.588834 0.596599 0.604396 0.612223 0.620077 0.627955 0.635853 0.643770 0.651703 0.659649 0.667606 0.355848 0.359847 0.363991 0.368276 0.372703 0.377269 0.381973 0.386813 0.391786 0.396892 0.402127 0.407489 0.412976 0.418585 0.424314 0.430159 0.436118 0.442188 0.448366 0.454649 0.461034 0.467517 0.474095 0.480765 0.487524 0.494368 0.501293 0.508296 0.515375 0.522525 0.529742 0.537025 0.544368 0.551769 0.559224 0.566730 0.574285 0.581883 0.589523 0.597201 0.604915 0.612660 0.620435 0.628236 0.636060 0.643906 0.651769 0.659649 0.667542 0.675446 0.365459 0.369458 0.373598 0.377879 0.382299 0.386857 0.391550 0.396377 0.401336 0.406425 0.411641 0.416983 0.422448 0.428034 0.433737 0.439555 0.445486 0.451526 0.457672 0.463921 0.470271 0.476718 0.483259 0.489890 0.496609 0.503412 0.510295 0.517255 0.524289 0.531394 0.538566 0.545801 0.553097 0.560450 0.567856 0.575313 0.582817 0.590365 0.597954 0.605580 0.613242 0.620935 0.628657 0.636405 0.644177 0.651969 0.659780 0.667606 0.675446 0.683296 0.003514 0.007045 0.010801 0.014780 0.018980 0.023400 0.028036 0.032888 0.037950 0.043221 0.048696 0.054372 0.060245 0.066310 0.072564 0.079000 0.085615 0.092403 0.099359 0.106478 0.113754 0.121183 0.128758 0.136475 0.144327 0.152308 0.160415 0.168640 0.176979 0.185425 0.193975 0.202621 0.211360 0.220186 0.229093 0.238078 0.247134 0.256259 0.265446 0.274691 0.283990 0.293339 0.302734 0.312170 0.321645 0.331153 0.340692 0.350258 0.359847 0.369458 0.007045 0.010594 0.014367 0.018363 0.022580 0.027017 0.031670 0.036538 0.041617 0.046903 0.052394 0.058086 0.063974 0.070054 0.076322 0.082773 0.089402 0.096204 0.103174 0.110306 0.117595 0.125036 0.132624 0.140352 0.148215 0.156208 0.164325 0.172561 0.180909 0.189365 0.197924 0.206579 0.215325 0.224159 0.233073 0.242065 0.251127 0.260257 0.269449 0.278699 0.288003 0.297355 0.306753 0.316192 0.325668 0.335178 0.344718 0.354284 0.363874 0.373483 0.010801 0.014367 0.018157 0.022170 0.026404 0.030857 0.035526 0.040409 0.045503 0.050805 0.056311 0.062017 0.067919 0.074013 0.080294 0.086758 0.093399 0.100213 0.107195 0.114338 0.121639 0.129091 0.136688 0.144426 0.152299 0.160301 0.168427 0.176670 0.185026 0.193490 0.202055 0.210716 0.219469 0.228307 0.237227 0.246223 0.255290 0.264423 0.273618 0.282870 0.292176 0.301530 0.310928 0.320368 0.329844 0.339353 0.348892 0.358456 0.368044 0.377650 0.014780 0.018363 0.022170 0.026199 0.030449 0.034917 0.039602 0.044500 0.049609 0.054924 0.060444 0.066163 0.072078 0.078184 0.084477 0.090952 0.097604 0.104429 0.111420 0.118574 0.125884 0.133344 0.140950 0.148696 0.156576 0.164585 0.172717 0.180967 0.189329 0.197797 0.206367 0.215032 0.223789 0.232631 0.241553 0.250551 0.259619 0.268754 0.277950 0.287203 0.296508 0.305861 0.315259 0.324696 0.334170 0.343677 0.353212 0.362773 0.372356 0.381958 0.018980 0.022580 0.026404 0.030449 0.034714 0.039198 0.043897 0.048809 0.053931 0.059260 0.064791 0.070522 0.076449 0.082566 0.088869 0.095354 0.102016 0.108849 0.115849 0.123011 0.130328 0.137795 0.145408 0.153159 0.161045 0.169059 0.177195 0.185449 0.193814 0.202286 0.210858 0.219525 0.228283 0.237126 0.246049 0.255047 0.264115 0.273249 0.282444 0.291695 0.300997 0.310348 0.319742 0.329176 0.338645 0.348147 0.357677 0.367232 0.376809 0.386404 0.023400 0.027017 0.030857 0.034917 0.039198 0.043696 0.048408 0.053334 0.058468 0.063809 0.069352 0.075094 0.081030 0.087157 0.093469 0.099963 0.106632 0.113473 0.120480 0.127647 0.134970 0.142442 0.150059 0.157815 0.165704 0.173720 0.181859 0.190115 0.198481 0.206954 0.215526 0.224194 0.232951 0.241793 0.250714 0.259710 0.268776 0.277907 0.287098 0.296344 0.305643 0.314988 0.324377 0.333805 0.343268 0.352763 0.362286 0.371833 0.381402 0.390988 0.028036 0.031670 0.035526 0.039602 0.043897 0.048408 0.053134 0.058072 0.063218 0.068570 0.074123 0.079875 0.085820 0.091955 0.098275 0.104775 0.111451 0.118297 0.125309 0.132480 0.139807 0.147282 0.154902 0.162659 0.170550 0.178568 0.186707 0.194962 0.203328 0.211799 0.220370 0.229035 0.237790 0.246628 0.255546 0.264538 0.273599 0.282724 0.291910 0.301150 0.310442 0.319781 0.329162 0.338582 0.348037 0.357523 0.367036 0.376574 0.386132 0.395708 0.032888 0.036538 0.040409 0.044500 0.048809 0.053334 0.058072 0.063021 0.068178 0.073540 0.079102 0.084862 0.090815 0.096957 0.103283 0.109788 0.116469 0.123319 0.130334 0.137508 0.144837 0.152314 0.159934 0.167692 0.175581 0.183598 0.191736 0.199989 0.208352 0.216820 0.225387 0.234048 0.242797 0.251631 0.260542 0.269528 0.278582 0.287700 0.296878 0.306110 0.315394 0.324723 0.334095 0.343505 0.352949 0.362424 0.371926 0.381452 0.390998 0.400561 0.037950 0.041617 0.045503 0.049609 0.053931 0.058468 0.063218 0.068178 0.073345 0.078716 0.084286 0.090053 0.096013 0.102160 0.108490 0.115000 0.121684 0.128536 0.135553 0.142728 0.150057 0.157533 0.165152 0.172908 0.180796 0.188809 0.196943 0.205192 0.213550 0.222013 0.230574 0.239228 0.247971 0.256797 0.265701 0.274678 0.283723 0.292832 0.302000 0.311222 0.320495 0.329813 0.339173 0.348571 0.358003 0.367465 0.376954 0.386466 0.395998 0.405546 0.043221 0.046903 0.050805 0.054924 0.059260 0.063809 0.068570 0.073540 0.078716 0.084094 0.089672 0.095445 0.101409 0.107561 0.113895 0.120407 0.127092 0.133946 0.140962 0.148136 0.155463 0.162938 0.170554 0.178306 0.186189 0.194198 0.202326 0.210569 0.218921 0.227376 0.235929 0.244575 0.253309 0.262125 0.271019 0.279986 0.289020 0.298118 0.307274 0.316484 0.325743 0.335048 0.344395 0.353779 0.363196 0.372643 0.382117 0.391613 0.401129 0.410661 0.048696 0.052394 0.056311 0.060444 0.064791 0.069352 0.074123 0.079102 0.084286 0.089672 0.095256 0.101034 0.107002 0.113156 0.119492 0.126005 0.132691 0.139544 0.146558 0.153730 0.161054 0.168525 0.176136 0.183883 0.191760 0.199761 0.207882 0.216117 0.224460 0.232906 0.241449 0.250085 0.258808 0.267612 0.276494 0.285449 0.294470 0.303554 0.312696 0.321892 0.331137 0.340427 0.349757 0.359125 0.368526 0.377957 0.387413 0.396892 0.406390 0.415904 0.054372 0.058086 0.062017 0.066163 0.070522 0.075094 0.079875 0.084862 0.090053 0.095445 0.101034 0.106815 0.112786 0.118943 0.125279 0.131792 0.138476 0.145327 0.152338 0.159506 0.166825 0.174290 0.181895 0.189634 0.197503 0.205496 0.213608 0.221833 0.230165 0.238599 0.247131 0.255754 0.264464 0.273256 0.282124 0.291063 0.300070 0.309139 0.318265 0.327444 0.336672 0.345945 0.355258 0.364608 0.373991 0.383403 0.392840 0.402299 0.411778 0.421271 0.060245 0.063974 0.067919 0.072078 0.076449 0.081030 0.085820 0.090815 0.096013 0.101409 0.107002 0.112786 0.118759 0.124916 0.131252 0.137763 0.144444 0.151291 0.158298 0.165461 0.172773 0.180230 0.187827 0.195558 0.203417 0.211400 0.219500 0.227713 0.236032 0.244454 0.252972 0.261581 0.270276 0.279052 0.287904 0.296827 0.305817 0.314868 0.323977 0.333138 0.342347 0.351601 0.360895 0.370225 0.379588 0.388979 0.398395 0.407833 0.417290 0.426762 0.066310 0.070054 0.074013 0.078184 0.082566 0.087157 0.091955 0.096957 0.102160 0.107561 0.113156 0.118943 0.124916 0.131072 0.137406 0.143914 0.150591 0.157433 0.164434 0.171589 0.178894 0.186342 0.193929 0.201649 0.209497 0.217467 0.225554 0.233753 0.242059 0.250465 0.258968 0.267561 0.276239 0.284998 0.293832 0.302737 0.311708 0.320740 0.329829 0.338970 0.348159 0.357392 0.366665 0.375973 0.385313 0.394682 0.404076 0.413491 0.422924 0.432372 0.072564 0.076322 0.080294 0.084477 0.088869 0.093469 0.098275 0.103283 0.108490 0.113895 0.119492 0.125279 0.131252 0.137406 0.143737 0.150241 0.156913 0.163748 0.170742 0.177888 0.185183 0.192621 0.200196 0.207904 0.215739 0.223695 0.231768 0.239951 0.248241 0.256630 0.265115 0.273690 0.282350 0.291090 0.299905 0.308790 0.317740 0.326751 0.335818 0.344937 0.354104 0.363314 0.372564 0.381849 0.391165 0.400510 0.409879 0.419269 0.428677 0.438100 0.079000 0.082773 0.086758 0.090952 0.095354 0.099963 0.104775 0.109788 0.115000 0.120407 0.126005 0.131792 0.137763 0.143914 0.150241 0.156739 0.163405 0.170232 0.177216 0.184353 0.191637 0.199063 0.206625 0.214319 0.222139 0.230080 0.238136 0.246303 0.254574 0.262945 0.271411 0.279966 0.288606 0.297325 0.306118 0.314981 0.323909 0.332897 0.341941 0.351037 0.360180 0.369365 0.378590 0.387850 0.397141 0.406460 0.415802 0.425166 0.434547 0.443943 0.085615 0.089402 0.093399 0.097604 0.102016 0.106632 0.111451 0.116469 0.121684 