# vtk DataFile Version 3.0
vtk output
ASCII
DATASET STRUCTURED_POINTS
DIMENSIONS 50 50 50
SPACING 0.020408 0.020408 0.020408
ORIGIN 0.000000 0.000000 0.000000
POINT_DATA 125000
SCALARS RTData float
LOOKUP_TABLE default
-0.000000 -0.003537 -0.006931 -0.010181 -0.013286 -0.016245 -0.019057 -0.021723 -0.024241 -0.026611 -0.028833 -0.030906 -0.032830 -0.034607 -0.036234 -0.037713 -0.039044 -0.040226 -0.041260 -0.042146 -0.042884 -0.043474 -0.043917 -0.044212 -0.044360 -0.044360 -0.044212 -0.043917 -0.043474 -0.042884 -0.042146 -0.041260 -0.040226 -0.039044 -0.037713 -0.036234 -0.034607 -0.032830 -0.030906 -0.028833 -0.026611 -0.024241 -0.021723 -0.019057 -0.016245 -0.013286 -0.010181 -0.006931 -0.003537 -0.000000 0.006670 0.003149 -0.000230 -0.003465 -0.006556 -0.009502 -0.012302 -0.014955 -0.017462 -0.019821 -0.022032 -0.024096 -0.026012 -0.027780 -0.029400 -0.030872 -0.032196 -0.033373 -0.034402 -0.035284 -0.036019 -0.036607 -0.037047 -0.037341 -0.037488 -0.037488 -0.037341 -0.037047 -0.036607 -0.036019 -0.035284 -0.034402 -0.033373 -0.032196 -0.030872 -0.029400 -0.027780 -0.026012 -0.024096 -0.022032 -0.019821 -0.017462 -0.014955 -0.012302 -0.009502 -0.006556 -0.003465 -0.000230 0.003149 0.006670 0.013571 0.010067 0.006705 0.003485 0.000409 -0.002522 -0.005308 -0.007949 -0.010443 -0.012790 -0.014991 -0.017044 -0.018951 -0.020710 -0.022322 -0.023787 -0.025105 -0.026276 -0.027300 -0.028177 -0.028908 -0.029493 -0.029932 -0.030224 -0.030370 -0.030370 -0.030224 -0.029932 -0.029493 -0.028908 -0.028177 -0.027300 -0.026276 -0.025105 -0.023787 -0.022322 -0.020710 -0.018951 -0.017044 -0.014991 -0.012790 -0.010443 -0.007949 -0.005308 -0.002522 0.000409 0.003485 0.006705 0.010067 0.013571 0.020701 0.017216 0.013871 0.010669 0.007609 0.004693 0.001921 -0.000705 -0.003186 -0.005521 -0.007710 -0.009753 -0.011650 -0.013399 -0.015003 -0.016460 -0.017771 -0.018936 -0.019955 -0.020828 -0.021555 -0.022136 -0.022572 -0.022863 -0.023008 -0.023008 -0.022863 -0.022572 -0.022136 -0.021555 -0.020828 -0.019955 -0.018936 -0.017771 -0.016460 -0.015003 -0.013399 -0.011650 -0.009753 -0.007710 -0.005521 -0.003186 -0.000705 0.001921 0.004693 0.007609 0.010669 0.013871 0.017216 0.020701 0.028058 0.024592 0.021267 0.018082 0.015039 0.012140 0.009384 0.006772 0.004305 0.001983 -0.000194 -0.002225 -0.004111 -0.005851 -0.007445 -0.008894 -0.010198 -0.011356 -0.012369 -0.013237 -0.013961 -0.014539 -0.014973 -0.015262 -0.015406 -0.015406 -0.015262 -0.014973 -0.014539 -0.013961 -0.013237 -0.012369 -0.011356 -0.010198 -0.008894 -0.007445 -0.005851 -0.004111 -0.002225 -0.000194 0.001983 0.004305 0.006772 0.009384 0.012140 0.015039 0.018082 0.021267 0.024592 0.028058 0.035639 0.032194 0.028888 0.025723 0.022698 0.019816 0.017077 0.014481 0.012028 0.009720 0.007556 0.005537 0.003663 0.001933 0.000348 -0.001093 -0.002389 -0.003540 -0.004547 -0.005410 -0.006129 -0.006704 -0.007135 -0.007422 -0.007566 -0.007566 -0.007422 -0.007135 -0.006704 -0.006129 -0.005410 -0.004547 -0.003540 -0.002389 -0.001093 0.000348 0.001933 0.003663 0.005537 0.007556 0.009720 0.012028 0.014481 0.017077 0.019816 0.022698 0.025723 0.028888 0.032194 0.035639 0.043440 0.040017 0.036732 0.033587 0.030582 0.027718 0.024996 0.022417 0.019980 0.017686 0.015536 0.013530 0.011667 0.009948 0.008373 0.006942 0.005654 0.004510 0.003509 0.002651 0.001937 0.001365 0.000937 0.000651 0.000509 0.000509 0.000651 0.000937 0.001365 0.001937 0.002651 0.003509 0.004510 0.005654 0.006942 0.008373 0.009948 0.011667 0.013530 0.015536 0.017686 0.019980 0.022417 0.024996 0.027718 0.030582 0.033587 0.036732 0.040017 0.043440 0.051458 0.048059 0.044796 0.041672 0.038688 0.035843 0.033139 0.030577 0.028157 0.025878 0.023742 0.021749 0.019899 0.018191 0.016627 0.015205 0.013925 0.012789 0.011794 0.010942 0.010233 0.009665 0.009240 0.008956 0.008814 0.008814 0.008956 0.009240 0.009665 0.010233 0.010942 0.011794 0.012789 0.013925 0.015205 0.016627 0.018191 0.019899 0.021749 0.023742 0.025878 0.028157 0.030577 0.033139 0.035843 0.038688 0.041672 0.044796 0.048059 0.051458 0.059690 0.056315 0.053076 0.049974 0.047011 0.044186 0.041502 0.038957 0.036554 0.034292 0.032171 0.030192 0.028354 0.026659 0.025105 0.023693 0.022422 0.021293 0.020306 0.019460 0.018755 0.018191 0.017769 0.017487 0.017346 0.017346 0.017487 0.017769 0.018191 0.018755 0.019460 0.020306 0.021293 0.022422 0.023693 0.025105 0.026659 0.028354 0.030192 0.032171 0.034292 0.036554 0.038957 0.041502 0.044186 0.047011 0.049974 0.053076 0.056315 0.059690 0.068131 0.064781 0.061566 0.058488 0.055547 0.052744 0.050079 0.047554 0.045168 0.042923 0.040818 0.038853 0.037029 0.035346 0.033803 0.032401 0.031140 0.030019 0.029039 0.028199 0.027499 0.026940 0.026520 0.026240 0.026100 0.026100 0.026240 0.026520 0.026940 0.027499 0.028199 0.029039 0.030019 0.031140 0.032401 0.033803 0.035346 0.037029 0.038853 0.040818 0.042923 0.045168 0.047554 0.050079 0.052744 0.055547 0.058488 0.061566 0.064781 0.068131 0.076777 0.073453 0.070264 0.067210 0.064292 0.061511 0.058867 0.056362 0.053995 0.051767 0.049678 0.047728 0.045918 0.044248 0.042717 0.041326 0.040074 0.038962 0.037989 0.037155 0.036461 0.035905 0.035489 0.035211 0.035072 0.035072 0.035211 0.035489 0.035905 0.036461 0.037155 0.037989 0.038962 0.040074 0.041326 0.042717 0.044248 0.045918 0.047728 0.049678 0.051767 0.053995 0.056362 0.058867 0.061511 0.064292 0.067210 0.070264 0.073453 0.076777 0.085622 0.082327 0.079164 0.076135 0.073241 0.070483 0.067861 0.065376 0.063028 0.060818 0.058746 0.056812 0.055017 0.053360 0.051841 0.050461 0.049219 0.048116 0.047151 0.046324 0.045635 0.045083 0.044670 0.044395 0.044257 0.044257 0.044395 0.044670 0.045083 0.045635 0.046324 0.047151 0.048116 0.049219 0.050461 0.051841 0.053360 0.055017 0.056812 0.058746 0.060818 0.063028 0.065376 0.067861 0.070483 0.073241 0.076135 0.079164 0.082327 0.085622 0.094664 0.091397 0.088261 0.085259 0.082390 0.079655 0.077056 0.074592 0.072264 0.070073 0.068018 0.066101 0.064320 0.062677 0.061171 0.059802 0.058571 0.057477 0.056519 0.055699 0.055016 0.054469 0.054059 0.053786 0.053649 0.053649 0.053786 0.054059 0.054469 0.055016 0.055699 0.056519 0.057477 0.058571 0.059802 0.061171 0.062677 0.064320 0.066101 0.068018 0.070073 0.072264 0.074592 0.077056 0.079655 0.082390 0.085259 0.088261 0.091397 0.094664 0.103895 0.100658 0.097551 0.094575 0.091732 0.089022 0.086446 0.084004 0.081697 0.079525 0.077488 0.075587 0.073823 0.072194 0.070701 0.069344 0.068123 0.067038 0.066089 0.065276 0.064598 0.064056 0.063650 0.063379 0.063243 0.063243 0.063379 0.063650 0.064056 0.064598 0.065276 0.066089 0.067038 0.068123 0.069344 0.070701 0.072194 0.073823 0.075587 0.077488 0.079525 0.081697 0.084004 0.086446 0.089022 0.091732 0.094575 0.097551 0.100658 0.103895 0.113311 0.110105 0.107027 0.104080 0.101263 0.098578 0.096026 0.093606 0.091321 0.089169 0.087151 0.085267 0.083518 0.081904 0.080425 0.079080 0.077870 0.076795 0.075854 0.075048 0.074377 0.073839 0.073437 0.073168 0.073034 0.073034 0.073168 0.073437 0.073839 0.074377 0.075048 0.075854 0.076795 0.077870 0.079080 0.080425 0.081904 0.083518 0.085267 0.087151 0.089169 0.091321 0.093606 0.096026 0.098578 0.101263 0.104080 0.107027 0.110105 0.113311 0.122907 0.119732 0.116684 0.113766 0.110976 0.108318 0.105790 0.103394 0.101130 0.098998 0.097000 0.095134 0.093402 0.091803 0.090337 0.089005 0.087807 0.086741 0.085809 0.085011 0.084345 0.083813 0.083414 0.083148 0.083015 0.083015 0.083148 0.083414 0.083813 0.084345 0.085011 0.085809 0.086741 0.087807 0.089005 0.090337 0.091803 0.093402 0.095134 0.097000 0.098998 0.101130 0.103394 0.105790 0.108318 0.110976 0.113766 0.116684 0.119732 0.122907 0.132676 0.129533 0.126517 0.123628 0.120867 0.118235 0.115732 0.113360 0.111119 0.109009 0.107030 0.105182 0.103467 0.101884 0.100432 0.099113 0.097926 0.096871 0.095948 0.095157 0.094498 0.093970 0.093575 0.093312 0.093180 0.093180 0.093312 0.093575 0.093970 0.094498 0.095157 0.095948 0.096871 0.097926 0.099113 0.100432 0.101884 0.103467 0.105182 0.107030 0.109009 0.111119 0.113360 0.115732 0.118235 0.120867 0.123628 0.126517 0.129533 0.132676 0.142613 0.139503 0.136519 0.133660 0.130928 0.128323 0.125847 0.123499 0.121281 0.119192 0.117234 0.115405 0.113707 0.112140 0.110703 0.109397 0.108222 0.107177 0.106263 0.105480 0.104828 0.104306 0.103914 0.103653 0.103523 0.103523 0.103653 0.103914 0.104306 0.104828 0.105480 0.106263 0.107177 0.108222 0.109397 0.110703 0.112140 0.113707 0.115405 0.117234 0.119192 0.121281 0.123499 0.125847 0.128323 0.130928 0.133660 0.136519 0.139503 0.142613 0.152711 0.149636 0.146684 0.143856 0.141154 0.138577 0.136128 0.133805 0.131610 0.129544 0.127606 0.125797 0.124117 0.122566 0.121144 0.119851 0.118688 0.117654 0.116750 0.115975 0.115329 0.114812 0.114425 0.114166 0.114037 0.114037 0.114166 0.114425 0.114812 0.115329 0.115975 0.116750 0.117654 0.118688 0.119851 0.121144 0.122566 0.124117 0.125797 0.127606 0.129544 0.131610 0.133805 0.136128 0.138577 0.141154 0.143856 0.146684 0.149636 0.152711 0.162966 0.159925 0.157006 0.154210 0.151538 0.148990 0.146568 0.144271 0.142101 0.140057 0.138140 0.136350 0.134688 0.133154 0.131748 0.130469 0.129318 0.128296 0.127401 0.126634 0.125995 0.125483 0.125100 0.124844 0.124717 0.124717 0.124844 0.125100 0.125483 0.125995 0.126634 0.127401 0.128296 0.129318 0.130469 0.131748 0.133154 0.134688 0.136350 0.138140 0.140057 0.142101 0.144271 0.146568 0.148990 0.151538 0.154210 0.157006 0.159925 0.162966 0.173369 0.170364 0.167479 0.164715 0.162074 0.159556 0.157161 0.154890 0.152745 0.150724 0.148829 0.147059 0.145416 0.143899 0.142508 0.141244 0.140106 0.139094 0.138209 0.137450 0.136818 0.136313 0.135933 0.135681 0.135554 0.135554 0.135681 0.135933 0.136313 0.136818 0.137450 0.138209 0.139094 0.140106 0.141244 0.142508 0.143899 0.145416 0.147059 0.148829 0.150724 0.152745 0.154890 0.157161 0.159556 0.162074 0.164715 0.167479 0.170364 0.173369 0.183916 0.180946 0.178096 0.175366 0.172756 0.170267 0.167901 0.165657 0.163536 0.161539 0.159666 0.157917 0.156293 0.154793 0.153418 0.152168 0.151043 0.150043 0.149168 0.148418 0.147793 0.147293 0.146918 0.146668 0.146543 0.146543 0.146668 0.146918 0.147293 0.147793 0.148418 0.149168 0.150043 0.151043 0.152168 0.153418 0.154793 0.156293 0.157917 0.159666 0.161539 0.163536 0.165657 0.167901 0.170267 0.172756 0.175366 0.178096 0.180946 0.183916 0.194599 0.191666 0.188851 0.186154 0.183576 0.181118 0.178780 0.176564 0.174469 0.172496 0.170645 0.168917 0.167312 0.165830 0.164471 0.163236 0.162124 0.161135 0.160271 0.159529 0.158912 0.158417 0.158047 0.157800 0.157676 0.157676 0.157800 0.158047 0.158417 0.158912 0.159529 0.160271 0.161135 0.162124 0.163236 0.164471 0.165830 0.167312 0.168917 0.170645 0.172496 0.174469 0.176564 0.178780 0.181118 0.183576 0.186154 0.188851 0.191666 0.194599 0.205412 0.202517 0.199737 0.197074 0.194529 0.192102 0.189793 0.187604 0.185535 0.183587 0.181759 0.180052 0.178466 0.177002 0.175660 0.174440 0.173341 0.172365 0.171510 0.170778 0.170167 0.169679 0.169313 0.169069 0.168947 0.168947 0.169069 0.169313 0.169679 0.170167 0.170778 0.171510 0.172365 0.173341 0.174440 0.175660 0.177002 0.178466 0.180052 0.181759 0.183587 0.185535 0.187604 0.189793 0.192102 0.194529 0.197074 0.199737 0.202517 0.205412 0.216349 0.213491 0.210748 0.208120 0.205607 0.203211 0.200932 0.198772 0.196729 0.194805 0.193000 0.191315 0.189749 0.188304 0.186978 0.185773 0.184688 0.183724 0.182880 0.182156 0.181554 0.181071 0.180710 0.180468 0.180348 0.180348 0.180468 0.180710 0.181071 0.181554 0.182156 0.182880 0.183724 0.184688 0.185773 0.186978 0.188304 0.189749 0.191315 0.193000 0.194805 0.196729 0.198772 0.200932 0.203211 0.205607 0.208120 0.210748 0.213491 0.216349 0.227403 0.224584 0.221877 0.219284 0.216804 0.214440 0.212191 0.210059 0.208043 0.206144 0.204363 0.202700 0.201154 0.199727 0.198419 0.197229 0.196158 0.195206 0.194372 0.193658 0.193063 0.192587 0.192229 0.191991 0.191872 0.191872 0.191991 0.192229 0.192587 0.193063 0.193658 0.194372 0.195206 0.196158 0.197229 0.198419 0.199727 0.201154 0.202700 0.204363 0.206144 0.208043 0.210059 0.212191 0.214440 0.216804 0.219284 0.221877 0.224584 0.227403 0.238568 0.235787 0.233117 0.230559 0.228114 0.225782 0.223563 0.221460 0.219471 0.217597 0.215840 0.214198 0.212674 0.211265 0.209974 0.208800 0.207743 0.206803 0.205981 0.205276 0.204688 0.204218 0.203865 0.203630 0.203513 0.203513 0.203630 0.203865 0.204218 0.204688 0.205276 0.205981 0.206803 0.207743 0.208800 0.209974 0.211265 0.212674 0.214198 0.215840 0.217597 0.219471 0.221460 0.223563 0.225782 0.228114 0.230559 0.233117 0.235787 0.238568 0.249837 0.247095 0.244463 0.241940 0.239529 0.237229 0.235041 0.232967 0.231005 0.229157 0.227424 0.225805 0.224301 0.222912 0.221638 0.220479 0.219436 0.218509 0.217698 0.217002 0.216422 0.215959 0.215611 0.215379 0.215263 0.215263 0.215379 0.215611 0.215959 0.216422 0.217002 0.217698 0.218509 0.219436 0.220479 0.221638 0.222912 0.224301 0.225805 0.227424 0.229157 0.231005 0.232967 0.235041 0.237229 0.239529 0.241940 0.244463 0.247095 0.249837 0.261203 0.258501 0.255906 0.253420 0.251043 0.248776 0.246619 0.244573 0.242640 0.240818 0.239109 0.237512 0.236029 0.234659 0.233403 0.232260 0.231232 0.230317 0.229517 0.228831 0.228259 0.227801 0.227458 0.227229 0.227115 0.227115 0.227229 0.227458 0.227801 0.228259 0.228831 0.229517 0.230317 0.231232 0.232260 0.233403 0.234659 0.236029 0.237512 0.239109 0.240818 0.242640 0.244573 0.246619 0.248776 0.251043 0.253420 0.255906 0.258501 0.261203 0.272661 0.269998 0.267442 0.264992 0.262649 0.260415 0.258289 0.256273 0.254367 0.252572 0.250887 0.249313 0.247851 0.246500 0.245262 0.244136 0.243121 0.242220 0.241431 0.240754 0.240190 0.239739 0.239401 0.239175 0.239062 0.239062 0.239175 0.239401 0.239739 0.240190 0.240754 0.241431 0.242220 0.243121 0.244136 0.245262 0.246500 0.247851 0.249313 0.250887 0.252572 0.254367 0.256273 0.258289 0.260415 0.262649 0.264992 0.267442 0.269998 0.272661 0.284204 0.281581 0.279062 0.276649 0.274341 0.272140 0.270046 0.268060 0.266182 0.264412 0.262752 0.261201 0.259760 0.258429 0.257209 0.256099 0.255099 0.254210 0.253432 0.252766 0.252210 0.251765 0.251431 0.251209 0.251098 0.251098 0.251209 0.251431 0.251765 0.252210 0.252766 0.253432 0.254210 0.255099 0.256099 0.257209 0.258429 0.259760 0.261201 0.262752 0.264412 0.266182 0.268060 0.270046 0.272140 0.274341 0.276649 0.279062 0.281581 0.284204 0.295825 0.293242 0.290762 0.288385 0.286112 0.283944 0.281882 0.279926 0.278076 0.276333 0.274697 0.273170 0.271750 0.270439 0.269236 0.268143 0.267158 0.266282 0.265516 0.264858 0.264311 0.263872 0.263544 0.263325 0.263215 0.263215 0.263325 0.263544 0.263872 0.264311 0.264858 0.265516 0.266282 0.267158 0.268143 0.269236 0.270439 0.271750 0.273170 0.274697 0.276333 0.278076 0.279926 0.281882 0.283944 0.286112 0.288385 0.290762 0.293242 0.295825 0.307519 0.304976 0.302534 0.300194 0.297956 0.295822 0.293791 0.291865 0.290043 0.288327 0.286716 0.285212 0.283814 0.282523 0.281338 0.280261 0.279291 0.278428 0.277673 0.277026 0.276486 0.276054 0.275731 0.275515 0.275407 0.275407 0.275515 0.275731 0.276054 0.276486 0.277026 0.277673 0.278428 0.279291 0.280261 0.281338 0.282523 0.283814 0.285212 0.286716 0.288327 0.290043 0.291865 0.293791 0.295822 0.297956 0.300194 0.302534 0.304976 0.307519 0.319279 0.316776 0.314373 0.312070 0.309867 0.307766 0.305767 0.303871 0.302078 0.300388 0.298803 0.297322 0.295945 0.294674 0.293507 0.292446 0.291491 0.290642 0.289898 0.289261 0.288729 0.288304 0.287985 0.287773 0.287666 0.287666 0.287773 0.287985 0.288304 0.288729 0.289261 0.289898 0.290642 0.291491 0.292446 0.293507 0.294674 0.295945 0.297322 0.298803 0.300388 0.302078 0.303871 0.305767 0.307766 0.309867 0.312070 0.314373 0.316776 0.319279 0.331099 0.328637 0.326272 0.324005 0.321838 0.319771 0.317804 0.315938 0.314173 0.312510 0.310950 0.309492 0.308137 0.306885 0.305737 0.304693 0.303753 0.302917 0.302185 0.301557 0.301034 0.300615 0.300301 0.300092 0.299987 0.299987 0.300092 0.300301 0.300615 0.301034 0.301557 0.302185 0.302917 0.303753 0.304693 0.305737 0.306885 0.308137 0.309492 0.310950 0.312510 0.314173 0.315938 0.317804 0.319771 0.321838 0.324005 0.326272 0.328637 0.331099 0.342973 0.340551 0.338225 0.335995 0.333864 0.331830 0.329894 0.328059 0.326322 0.324686 0.323151 0.321717 0.320383 0.319152 0.318022 0.316995 0.316069 0.315246 0.314526 0.313908 0.313393 0.312981 0.312672 0.312466 0.312363 0.312363 0.312466 0.312672 0.312981 0.313393 0.313908 0.314526 0.315246 0.316069 0.316995 0.318022 0.319152 0.320383 0.321717 0.323151 0.324686 0.326322 0.328059 0.329894 0.331830 0.333864 0.335995 0.338225 0.340551 0.342973 0.354896 0.352514 0.350226 0.348034 0.345937 0.343937 0.342034 0.340228 0.338520 0.336911 0.335401 0.333990 0.332678 0.331467 0.330355 0.329344 0.328434 0.327624 0.326916 0.326308 0.325801 0.325396 0.325092 0.324889 0.324788 0.324788 0.324889 0.325092 0.325396 0.325801 0.326308 0.326916 0.327624 0.328434 0.329344 0.330355 0.331467 0.332678 0.333990 0.335401 0.336911 0.338520 0.340228 0.342034 0.343937 0.345937 0.348034 0.350226 0.352514 0.354896 0.366861 0.364519 0.362270 0.360115 0.358053 0.356086 0.354215 0.352439 0.350760 0.349178 0.347693 0.346305 0.345015 0.343824 0.342731 0.341737 0.340841 0.340045 0.339348 0.338750 0.338252 0.337853 0.337554 0.337354 0.337254 0.337254 0.337354 0.337554 0.337853 0.338252 0.338750 0.339348 0.340045 0.340841 0.341737 0.342731 0.343824 0.345015 0.346305 0.347693 0.349178 0.350760 0.352439 0.354215 0.356086 0.358053 0.360115 0.362270 0.364519 0.366861 0.378864 0.376562 0.374351 0.372232 0.370206 0.368273 0.366433 0.364688 0.363037 0.361481 0.360021 0.358657 0.357389 0.356217 0.355143 0.354165 0.353284 0.352501 0.351816 0.351228 0.350738 0.350346 0.350052 0.349856 0.349758 0.349758 0.349856 0.350052 0.350346 0.350738 0.351228 0.351816 0.352501 0.353284 0.354165 0.355143 0.356217 0.357389 0.358657 0.360021 0.361481 0.363037 0.364688 0.366433 0.368273 0.370206 0.372232 0.374351 0.376562 0.378864 0.390898 0.388636 0.386464 0.384381 0.382390 0.380490 0.378682 0.376966 0.375344 0.373815 0.372380 0.371039 0.369793 0.368641 0.367585 0.366624 0.365758 0.364988 0.364314 0.363737 0.363255 0.362869 0.362580 0.362387 0.362291 0.362291 0.362387 0.362580 0.362869 0.363255 0.363737 0.364314 0.364988 0.365758 0.366624 0.367585 0.368641 0.369793 0.371039 0.372380 0.373815 0.375344 0.376966 0.378682 0.380490 0.382390 0.384381 0.386464 0.388636 0.390898 0.402959 0.400736 0.398602 0.396556 0.394599 0.392733 0.390956 0.389271 0.387677 0.386174 0.384764 0.383446 0.382222 0.381090 0.380052 0.379107 0.378257 0.377500 0.376838 0.376270 0.375796 0.375417 0.375133 0.374944 0.374849 0.374849 0.374944 0.375133 0.375417 0.375796 0.376270 0.376838 0.377500 0.378257 0.379107 0.380052 0.381090 0.382222 0.383446 0.384764 0.386174 0.387677 0.389271 0.390956 0.392733 0.394599 0.396556 0.398602 0.400736 0.402959 0.415041 0.412858 0.410761 0.408751 0.406829 0.404996 0.403251 0.401595 0.400029 0.398553 0.397168 0.395873 0.394670 0.393558 0.392538 0.391610 0.390774 0.390031 0.389380 0.388822 0.388357 0.387985 0.387705 0.387519 0.387426 0.387426 0.387519 0.387705 0.387985 0.388357 0.388822 0.389380 0.390031 0.390774 0.391610 0.392538 0.393558 0.394670 0.395873 0.397168 0.398553 0.400029 0.401595 0.403251 0.404996 0.406829 0.408751 0.410761 0.412858 0.415041 0.427139 0.424995 0.422936 0.420962 0.419075 0.417274 0.415560 0.413934 0.412396 0.410946 0.409586 0.408314 0.407132 0.406040 0.405038 0.404127 0.403306 0.402576 0.401936 0.401388 0.400931 0.400565 0.400291 0.400108 0.400016 0.400016 0.400108 0.400291 0.400565 0.400931 0.401388 0.401936 0.402576 0.403306 0.404127 0.405038 0.406040 0.407132 0.408314 0.409586 0.410946 0.412396 0.413934 0.415560 0.417274 0.419075 0.420962 0.422936 0.424995 0.427139 0.439249 0.437144 0.435122 0.433184 0.431331 0.429562 0.427880 0.426283 0.424773 0.423349 0.422013 0.420764 0.419604 0.418531 0.417547 0.416652 0.415846 0.415129 0.414501 0.413962 0.413514 0.413154 0.412885 0.412705 0.412615 0.412615 0.412705 0.412885 0.413154 0.413514 0.413962 0.414501 0.415129 0.415846 0.416652 0.417547 0.418531 0.419604 0.420764 0.422013 0.423349 0.424773 0.426283 0.427880 0.429562 0.431331 0.433184 0.435122 0.437144 0.439249 0.451366 0.449299 0.447314 0.445412 0.443592 0.441856 0.440204 0.438637 0.437154 0.435756 0.434445 0.433219 0.432079 0.431026 0.430060 0.429181 0.428390 0.427685 0.427069 0.426540 0.426099 0.425747 0.425482 0.425306 0.425217 0.425217 0.425306 0.425482 0.425747 0.426099 0.426540 0.427069 0.427685 0.428390 0.429181 0.430060 0.431026 0.432079 0.433219 0.434445 0.435756 0.437154 0.438637 0.440204 0.441856 0.443592 0.445412 0.447314 0.449299 0.451366 0.463484 0.461456 0.459508 0.457640 0.455855 0.454151 0.452529 0.450990 0.449535 0.448163 0.446876 0.445672 0.444554 0.443520 0.442572 0.441709 0.440932 0.440241 0.439635 0.439116 0.438684 0.438337 0.438078 0.437904 0.437818 0.437818 0.437904 0.438078 0.438337 0.438684 0.439116 0.439635 0.440241 0.440932 0.441709 0.442572 0.443520 0.444554 0.445672 0.446876 0.448163 0.449535 0.450990 0.452529 0.454151 0.455855 0.457640 0.459508 0.461456 0.463484 0.475601 0.473611 0.471699 0.469866 0.468114 0.466441 0.464850 0.463340 0.461912 0.460566 0.459302 0.458121 0.457023 0.456009 0.455078 0.454231 0.453468 0.452790 0.452196 0.451686 0.451262 0.450922 0.450667 0.450497 0.450412 0.450412 0.450497 0.450667 0.450922 0.451262 0.451686 0.452196 0.452790 0.453468 0.454231 0.455078 0.456009 0.457023 0.458121 0.459302 0.460566 0.461912 0.463340 0.464850 0.466441 0.468114 0.469866 0.471699 0.473611 0.475601 0.487712 0.485759 0.483883 0.482084 0.480365 0.478724 0.477163 0.475681 0.474279 0.472959 0.471719 0.470560 0.469483 0.468487 0.467574 0.466743 0.465994 0.465329 0.464746 0.464246 0.463829 0.463495 0.463245 0.463078 0.462995 0.462995 0.463078 0.463245 0.463495 0.463829 0.464246 0.464746 0.465329 0.465994 0.466743 0.467574 0.468487 0.469483 0.470560 0.471719 0.472959 0.474279 0.475681 0.477163 0.478724 0.480365 0.482084 0.483883 0.485759 0.487712 0.499812 0.497896 0.496055 0.494291 0.492604 0.490995 0.489463 0.488009 0.486634 0.485338 0.484122 0.482985 0.481928 0.480951 0.480055 0.479240 0.478506 0.477853 0.477281 0.476790 0.476381 0.476054 0.475808 0.475645 0.475563 0.475563 0.475645 0.475808 0.476054 0.476381 0.476790 0.477281 0.477853 0.478506 0.479240 0.480055 0.480951 0.481928 0.482985 0.484122 0.485338 0.486634 0.488009 0.489463 0.490995 0.492604 0.494291 0.496055 0.497896 0.499812 0.511899 0.510019 0.508213 0.506483 0.504828 0.503249 0.501746 0.500320 0.498972 0.497701 0.496507 0.495392 0.494355 0.493397 0.492518 0.491719 0.490998 0.490358 0.489796 0.489315 0.488914 0.488593 0.488352 0.488192 0.488111 0.488111 0.488192 0.488352 0.488593 0.488914 0.489315 0.489796 0.490358 0.490998 0.491719 0.492518 0.493397 0.494355 0.495392 0.496507 0.497701 0.498972 0.500320 0.501746 0.503249 0.504828 0.506483 0.508213 0.510019 0.511899 0.006670 0.003149 -0.000230 -0.003465 -0.006556 -0.009502 -0.012302 -0.014955 -0.017462 -0.019821 -0.022032 -0.024096 -0.026012 -0.027780 -0.029400 -0.030872 -0.032196 -0.033373 -0.034402 -0.035284 -0.036019 -0.036607 -0.037047 -0.037341 -0.037488 -0.037488 -0.037341 -0.037047 -0.036607 -0.036019 -0.035284 -0.034402 -0.033373 -0.032196 -0.030872 -0.029400 -0.027780 -0.026012 -0.024096 -0.022032 -0.019821 -0.017462 -0.014955 -0.012302 -0.009502 -0.006556 -0.003465 -0.000230 0.003149 0.006670 0.013379 0.009874 0.006511 0.003290 0.000214 -0.002719 -0.005506 -0.008147 -0.010642 -0.012990 -0.015191 -0.017245 -0.019152 -0.020911 -0.022524 -0.023989 -0.025307 -0.026478 -0.027503 -0.028381 -0.029112 -0.029697 -0.030135 -0.030427 -0.030573 -0.030573 -0.030427 -0.030135 -0.029697 -0.029112 -0.028381 -0.027503 -0.026478 -0.025307 -0.023989 -0.022524 -0.020911 -0.019152 -0.017245 -0.015191 -0.012990 -0.010642 -0.008147 -0.005506 -0.002719 0.000214 0.003290 0.006511 0.009874 0.013379 0.020319 0.016832 0.013485 0.010281 0.007219 0.004302 0.001529 -0.001099 -0.003582 -0.005918 -0.008108 -0.010152 -0.012049 -0.013800 -0.015404 -0.016862 -0.018174 -0.019339 -0.020358 -0.021232 -0.021959 -0.022541 -0.022977 -0.023268 -0.023414 -0.023414 -0.023268 -0.022977 -0.022541 -0.021959 -0.021232 -0.020358 -0.019339 -0.018174 -0.016862 -0.015404 -0.013800 -0.012049 -0.010152 -0.008108 -0.005918 -0.003582 -0.001099 0.001529 0.004302 0.007219 0.010281 0.013485 0.016832 0.020319 0.027488 0.024019 0.020691 0.017503 0.014458 0.011556 0.008798 0.006184 0.003715 0.001391 -0.000787 -0.002820 -0.004707 -0.006448 -0.008044 -0.009494 -0.010799 -0.011958 -0.012971 -0.013840 -0.014564 -0.015142 -0.015576 -0.015866 -0.016010 -0.016010 -0.015866 -0.015576 -0.015142 -0.014564 -0.013840 -0.012971 -0.011958 -0.010799 -0.009494 -0.008044 -0.006448 -0.004707 -0.002820 -0.000787 0.001391 0.003715 0.006184 0.008798 0.011556 0.014458 0.017503 0.020691 0.024019 0.027488 0.034884 0.031435 0.028125 0.024956 0.021929 0.019043 0.016301 0.013702 0.011247 0.008936 0.006770 0.004749 0.002873 0.001141 -0.000445 -0.001887 -0.003184 -0.004337 -0.005345 -0.006208 -0.006928 -0.007503 -0.007935 -0.008222 -0.008366 -0.008366 -0.008222 -0.007935 -0.007503 -0.006928 -0.006208 -0.005345 -0.004337 -0.003184 -0.001887 -0.000445 0.001141 0.002873 0.004749 0.006770 0.008936 0.011247 0.013702 0.016301 0.019043 0.021929 0.024956 0.028125 0.031435 0.034884 0.042503 0.039075 0.035786 0.032636 0.029627 0.026759 0.024033 0.021450 0.019010 0.016714 0.014561 0.012552 0.010687 0.008966 0.007389 0.005956 0.004666 0.003521 0.002519 0.001660 0.000945 0.000373 -0.000056 -0.000341 -0.000484 -0.000484 -0.000341 -0.000056 0.000373 0.000945 0.001660 0.002519 0.003521 0.004666 0.005956 0.007389 0.008966 0.010687 0.012552 0.014561 0.016714 0.019010 0.021450 0.024033 0.026759 0.029627 0.032636 0.035786 0.039075 0.042503 0.050343 0.046937 0.043669 0.040540 0.037550 0.034701 0.031993 0.029426 0.027002 0.024720 0.022581 0.020585 0.018732 0.017022 0.015455 0.014031 0.012750 0.011612 0.010616 0.009763 0.009052 0.008484 0.008058 0.007774 0.007631 0.007631 0.007774 0.008058 0.008484 0.009052 0.009763 0.010616 0.011612 0.012750 0.014031 0.015455 0.017022 0.018732 0.020585 0.022581 0.024720 0.027002 0.029426 0.031993 0.034701 0.037550 0.040540 0.043669 0.046937 0.050343 0.058399 0.055017 0.051771 0.048664 0.045694 0.042865 0.040175 0.037626 0.035218 0.032952 0.030827 0.028845 0.027004 0.025306 0.023749 0.022335 0.021062 0.019931 0.018942 0.018095 0.017389 0.016824 0.016401 0.016119 0.015978 0.015978 0.016119 0.016401 0.016824 0.017389 0.018095 0.018942 0.019931 0.021062 0.022335 0.023749 0.025306 0.027004 0.028845 0.030827 0.032952 0.035218 0.037626 0.040175 0.042865 0.045694 0.048664 0.051771 0.055017 0.058399 0.066668 0.063311 0.060089 0.057004 0.054056 0.051247 0.048576 0.046046 0.043655 0.041405 0.039296 0.037327 0.035499 0.033813 0.032267 0.030863 0.029599 0.028477 0.027495 0.026653 0.025952 0.025391 0.024971 0.024691 0.024551 0.024551 0.024691 0.024971 0.025391 0.025952 0.026653 0.027495 0.028477 0.029599 0.030863 0.032267 0.033813 0.035499 0.037327 0.039296 0.041405 0.043655 0.046046 0.048576 0.051247 0.054056 0.057004 0.060089 0.063311 0.066668 0.075147 0.071815 0.068618 0.065556 0.062631 0.059843 0.057193 0.054681 0.052308 0.050075 0.047981 0.046028 0.044214 0.042540 0.041006 0.039611 0.038357 0.037243 0.036268 0.035432 0.034737 0.034180 0.033763 0.033484 0.033345 0.033345 0.033484 0.033763 0.034180 0.034737 0.035432 0.036268 0.037243 0.038357 0.039611 0.041006 0.042540 0.044214 0.046028 0.047981 0.050075 0.052308 0.054681 0.057193 0.059843 0.062631 0.065556 0.068618 0.071815 0.075147 0.083830 0.080525 0.077353 0.074316 0.071414 0.068648 0.066019 0.063527 0.061173 0.058958 0.056880 0.054942 0.053142 0.051481 0.049959 0.048575 0.047331 0.046225 0.045257 0.044429 0.043738 0.043186 0.042771 0.042495 0.042357 0.042357 0.042495 0.042771 0.043186 0.043738 0.044429 0.045257 0.046225 0.047331 0.048575 0.049959 0.051481 0.053142 0.054942 0.056880 0.058958 0.061173 0.063527 0.066019 0.068648 0.071414 0.074316 0.077353 0.080525 0.083830 0.092712 0.089435 0.086290 0.083278 0.080401 0.077658 0.075051 0.072580 0.070245 0.068048 0.065988 0.064065 0.062280 0.060632 0.059122 0.057750 0.056515 0.055418 0.054459 0.053636 0.052951 0.052403 0.051992 0.051719 0.051582 0.051582 0.051719 0.051992 0.052403 0.052951 0.053636 0.054459 0.055418 0.056515 0.057750 0.059122 0.060632 0.062280 0.064065 0.065988 0.068048 0.070245 0.072580 0.075051 0.077658 0.080401 0.083278 0.086290 0.089435 0.092712 0.101790 0.098541 0.095424 0.092439 0.089586 0.086867 0.084283 0.081833 0.079519 0.077340 0.075298 0.073391 0.071621 0.069988 0.068491 0.067130 0.065906 0.064818 0.063866 0.063051 0.062371 0.061828 0.061420 0.061149 0.061013 0.061013 0.061149 0.061420 0.061828 0.062371 0.063051 0.063866 0.064818 0.065906 0.067130 0.068491 0.069988 0.071621 0.073391 0.075298 0.077340 0.079519 0.081833 0.084283 0.086867 0.089586 0.092439 0.095424 0.098541 0.101790 0.111057 0.107838 0.104750 0.101792 0.098965 0.096271 0.093710 0.091282 0.088989 0.086830 0.084806 0.082916 0.081162 0.079543 0.078059 0.076710 0.075496 0.074418 0.073474 0.072666 0.071993 0.071454 0.071050 0.070781 0.070646 0.070646 0.070781 0.071050 0.071454 0.071993 0.072666 0.073474 0.074418 0.075496 0.076710 0.078059 0.079543 0.081162 0.082916 0.084806 0.086830 0.088989 0.091282 0.093710 0.096271 0.098965 0.101792 0.104750 0.107838 0.111057 0.120508 0.117321 0.114262 0.111332 0.108532 0.105864 0.103327 0.100922 0.098650 0.096511 0.094505 0.092633 0.090895 0.089291 0.087820 0.086484 0.085281 0.084213 0.083278 0.082477 0.081809 0.081275 0.080875 0.080608 0.080475 0.080475 0.080608 0.080875 0.081275 0.081809 0.082477 0.083278 0.084213 0.085281 0.086484 0.087820 0.089291 0.090895 0.092633 0.094505 0.096511 0.098650 0.100922 0.103327 0.105864 0.108532 0.111332 0.114262 0.117321 0.120508 0.130139 0.126983 0.123954 0.121053 0.118281 0.115639 0.113127 0.110746 0.108496 0.106377 0.104391 0.102537 0.100816 0.099226 0.0