# vtk DataFile Version 3.0
vtk output
ASCII
DATASET STRUCTURED_POINTS
DIMENSIONS 50 50 50
SPACING 0.020408 0.020408 0.020408
ORIGIN 0.000000 0.000000 0.000000
POINT_DATA 125000
SCALARS RTData float
LOOKUP_TABLE default
0.000000 -0.004761 -0.009276 -0.013546 -0.017572 -0.021357 -0.024903 -0.028216 -0.031299 -0.034158 -0.036800 -0.039229 -0.041452 -0.043475 -0.045305 -0.046946 -0.048406 -0.049689 -0.050800 -0.051744 -0.052525 -0.053145 -0.053608 -0.053915 -0.054068 -0.054068 -0.053915 -0.053608 -0.053145 -0.052525 -0.051744 -0.050800 -0.049689 -0.048406 -0.046946 -0.045305 -0.043475 -0.041452 -0.039229 -0.036800 -0.034158 -0.031299 -0.028216 -0.024903 -0.021357 -0.017572 -0.013546 -0.009276 -0.004761 0.000000 0.005290 0.000544 -0.003957 -0.008213 -0.012226 -0.015998 -0.019533 -0.022835 -0.025908 -0.028758 -0.031390 -0.033811 -0.036027 -0.038043 -0.039866 -0.041502 -0.042957 -0.044236 -0.045343 -0.046283 -0.047061 -0.047679 -0.048140 -0.048446 -0.048599 -0.048599 -0.048446 -0.048140 -0.047679 -0.047061 -0.046283 -0.045343 -0.044236 -0.042957 -0.041502 -0.039866 -0.038043 -0.036027 -0.033811 -0.031390 -0.028758 -0.025908 -0.022835 -0.019533 -0.015998 -0.012226 -0.008213 -0.003957 0.000544 0.005290 0.010960 0.006231 0.001746 -0.002495 -0.006494 -0.010253 -0.013776 -0.017066 -0.020129 -0.022970 -0.025594 -0.028007 -0.030215 -0.032225 -0.034043 -0.035674 -0.037124 -0.038399 -0.039503 -0.040440 -0.041216 -0.041832 -0.042292 -0.042597 -0.042750 -0.042750 -0.042597 -0.042292 -0.041832 -0.041216 -0.040440 -0.039503 -0.038399 -0.037124 -0.035674 -0.034043 -0.032225 -0.030215 -0.028007 -0.025594 -0.022970 -0.020129 -0.017066 -0.013776 -0.010253 -0.006494 -0.002495 0.001746 0.006231 0.010960 0.017005 0.012295 0.007829 0.003604 -0.000380 -0.004125 -0.007635 -0.010914 -0.013966 -0.016798 -0.019413 -0.021819 -0.024021 -0.026025 -0.027837 -0.029464 -0.030910 -0.032182 -0.033283 -0.034219 -0.034992 -0.035607 -0.036066 -0.036370 -0.036522 -0.036522 -0.036370 -0.036066 -0.035607 -0.034992 -0.034219 -0.033283 -0.032182 -0.030910 -0.029464 -0.027837 -0.026025 -0.024021 -0.021819 -0.019413 -0.016798 -0.013966 -0.010914 -0.007635 -0.004125 -0.000380 0.003604 0.007829 0.012295 0.017005 0.023422 0.018734 0.014286 0.010080 0.006112 0.002382 -0.001115 -0.004382 -0.007424 -0.010246 -0.012853 -0.015252 -0.017447 -0.019446 -0.021254 -0.022877 -0.024320 -0.025589 -0.026688 -0.027622 -0.028394 -0.029008 -0.029466 -0.029770 -0.029922 -0.029922 -0.029770 -0.029466 -0.029008 -0.028394 -0.027622 -0.026688 -0.025589 -0.024320 -0.022877 -0.021254 -0.019446 -0.017447 -0.015252 -0.012853 -0.010246 -0.007424 -0.004382 -0.001115 0.002382 0.006112 0.010080 0.014286 0.018734 0.023422 0.030204 0.025539 0.021113 0.016926 0.012976 0.009261 0.005778 0.002523 -0.000508 -0.003320 -0.005920 -0.008311 -0.010501 -0.012495 -0.014299 -0.015919 -0.017359 -0.018626 -0.019723 -0.020656 -0.021427 -0.022040 -0.022498 -0.022801 -0.022953 -0.022953 -0.022801 -0.022498 -0.022040 -0.021427 -0.020656 -0.019723 -0.018626 -0.017359 -0.015919 -0.014299 -0.012495 -0.010501 -0.008311 -0.005920 -0.003320 -0.000508 0.002523 0.005778 0.009261 0.012976 0.016926 0.021113 0.025539 0.030204 0.037345 0.032705 0.028301 0.024135 0.020204 0.016506 0.013037 0.009795 0.006775 0.003972 0.001381 -0.001004 -0.003189 -0.005178 -0.006979 -0.008595 -0.010034 -0.011299 -0.012395 -0.013326 -0.014097 -0.014709 -0.015167 -0.015470 -0.015622 -0.015622 -0.015470 -0.015167 -0.014709 -0.014097 -0.013326 -0.012395 -0.011299 -0.010034 -0.008595 -0.006979 -0.005178 -0.003189 -0.001004 0.001381 0.003972 0.006775 0.009795 0.013037 0.016506 0.020204 0.024135 0.028301 0.032705 0.037345 0.044835 0.040222 0.035843 0.031699 0.027788 0.024107 0.020654 0.017426 0.014417 0.011624 0.009040 0.006662 0.004483 0.002497 0.000700 -0.000914 -0.002350 -0.003614 -0.004709 -0.005640 -0.006411 -0.007023 -0.007480 -0.007784 -0.007935 -0.007935 -0.007784 -0.007480 -0.007023 -0.006411 -0.005640 -0.004709 -0.003614 -0.002350 -0.000914 0.000700 0.002497 0.004483 0.006662 0.009040 0.011624 0.014417 0.017426 0.020654 0.024107 0.027788 0.031699 0.035843 0.040222 0.044835 0.052665 0.048082 0.043730 0.039609 0.035719 0.032057 0.028620 0.025405 0.022408 0.019625 0.017050 0.014678 0.012504 0.010523 0.008729 0.007117 0.005682 0.004419 0.003325 0.002394 0.001624 0.001011 0.000554 0.000250 0.000099 0.000099 0.000250 0.000554 0.001011 0.001624 0.002394 0.003325 0.004419 0.005682 0.007117 0.008729 0.010523 0.012504 0.014678 0.017050 0.019625 0.022408 0.025405 0.028620 0.032057 0.035719 0.039609 0.043730 0.048082 0.052665 0.060827 0.056274 0.051950 0.047854 0.043986 0.040344 0.036924 0.033724 0.030740 0.027967 0.025400 0.023035 0.020866 0.018889 0.017098 0.015488 0.014055 0.012793 0.011699 0.010768 0.009998 0.009385 0.008928 0.008624 0.008472 0.008472 0.008624 0.008928 0.009385 0.009998 0.010768 0.011699 0.012793 0.014055 0.015488 0.017098 0.018889 0.020866 0.023035 0.025400 0.027967 0.030740 0.033724 0.036924 0.040344 0.043986 0.047854 0.051950 0.056274 0.060827 0.069308 0.064788 0.060493 0.056424 0.052580 0.048958 0.045557 0.042372 0.039400 0.036638 0.034080 0.031722 0.029559 0.027586 0.025798 0.024191 0.022758 0.021497 0.020403 0.019473 0.018702 0.018090 0.017632 0.017328 0.017176 0.017176 0.017328 0.017632 0.018090 0.018702 0.019473 0.020403 0.021497 0.022758 0.024191 0.025798 0.027586 0.029559 0.031722 0.034080 0.036638 0.039400 0.042372 0.045557 0.048958 0.052580 0.056424 0.060493 0.064788 0.069308 0.078097 0.073611 0.069348 0.065308 0.061488 0.057888 0.054505 0.051337 0.048379 0.045628 0.043080 0.040729 0.038572 0.036603 0.034819 0.033213 0.031782 0.030522 0.029428 0.028498 0.027727 0.027114 0.026656 0.026352 0.026200 0.026200 0.026352 0.026656 0.027114 0.027727 0.028498 0.029428 0.030522 0.031782 0.033213 0.034819 0.036603 0.038572 0.040729 0.043080 0.045628 0.048379 0.051337 0.054505 0.057888 0.061488 0.065308 0.069348 0.073611 0.078097 0.087183 0.082734 0.078503 0.074492 0.070699 0.067122 0.063759 0.060607 0.057664 0.054925 0.052387 0.050044 0.047893 0.045929 0.044148 0.042545 0.041116 0.039856 0.038763 0.037832 0.037062 0.036448 0.035990 0.035686 0.035533 0.035533 0.035686 0.035990 0.036448 0.037062 0.037832 0.038763 0.039856 0.041116 0.042545 0.044148 0.045929 0.047893 0.050044 0.052387 0.054925 0.057664 0.060607 0.063759 0.067122 0.070699 0.074492 0.078503 0.082734 0.087183 0.096553 0.092141 0.087945 0.083965 0.080199 0.076646 0.073304 0.070171 0.067243 0.064517 0.061989 0.059655 0.057511 0.055553 0.053775 0.052175 0.050747 0.049489 0.048396 0.047466 0.046695 0.046082 0.045623 0.045318 0.045166 0.045166 0.045318 0.045623 0.046082 0.046695 0.047466 0.048396 0.049489 0.050747 0.052175 0.053775 0.055553 0.057511 0.059655 0.061989 0.064517 0.067243 0.070171 0.073304 0.076646 0.080199 0.083965 0.087945 0.092141 0.096553 0.106194 0.101822 0.097662 0.093714 0.089977 0.086449 0.083130 0.080016 0.077104 0.074392 0.071875 0.069551 0.067414 0.065461 0.063688 0.062090 0.060665 0.059408 0.058316 0.057386 0.056616 0.056002 0.055544 0.055239 0.055086 0.055086 0.055239 0.055544 0.056002 0.056616 0.057386 0.058316 0.059408 0.060665 0.062090 0.063688 0.065461 0.067414 0.069551 0.071875 0.074392 0.077104 0.080016 0.083130 0.086449 0.089977 0.093714 0.097662 0.101822 0.106194 0.116095 0.111764 0.107641 0.103726 0.100019 0.096518 0.093222 0.090128 0.087234 0.084536 0.082032 0.079717 0.077589 0.075642 0.073874 0.072280 0.070857 0.069602 0.068512 0.067582 0.066812 0.066199 0.065740 0.065435 0.065283 0.065283 0.065435 0.065740 0.066199 0.066812 0.067582 0.068512 0.069602 0.070857 0.072280 0.073874 0.075642 0.077589 0.079717 0.082032 0.084536 0.087234 0.090128 0.093222 0.096518 0.100019 0.103726 0.107641 0.111764 0.116095 0.126241 0.121953 0.117869 0.113989 0.110313 0.106840 0.103568 0.100496 0.097620 0.094938 0.092447 0.090143 0.088023 0.086083 0.084321 0.082731 0.081312 0.080059 0.078970 0.078042 0.077272 0.076659 0.076200 0.075896 0.075743 0.075743 0.075896 0.076200 0.076659 0.077272 0.078042 0.078970 0.080059 0.081312 0.082731 0.084321 0.086083 0.088023 0.090143 0.092447 0.094938 0.097620 0.100496 0.103568 0.106840 0.110313 0.113989 0.117869 0.121953 0.126241 0.136621 0.132376 0.128332 0.124489 0.120845 0.117401 0.114155 0.111105 0.108249 0.105583 0.103106 0.100814 0.098704 0.096772 0.095016 0.093432 0.092016 0.090766 0.089679 0.088752 0.087983 0.087371 0.086913 0.086608 0.086456 0.086456 0.086608 0.086913 0.087371 0.087983 0.088752 0.089679 0.090766 0.092016 0.093432 0.095016 0.096772 0.098704 0.100814 0.103106 0.105583 0.108249 0.111105 0.114155 0.117401 0.120845 0.124489 0.128332 0.132376 0.136621 0.147221 0.143022 0.139019 0.135213 0.131603 0.128190 0.124970 0.121944 0.119108 0.116460 0.113998 0.111719 0.109619 0.107696 0.105947 0.104368 0.102957 0.101710 0.100626 0.099701 0.098933 0.098322 0.097864 0.097560 0.097408 0.097408 0.097560 0.097864 0.098322 0.098933 0.099701 0.100626 0.101710 0.102957 0.104368 0.105947 0.107696 0.109619 0.111719 0.113998 0.116460 0.119108 0.121944 0.124970 0.128190 0.131603 0.135213 0.139019 0.143022 0.147221 0.158029 0.153876 0.149916 0.146149 0.142574 0.139192 0.136000 0.132998 0.130184 0.127555 0.125109 0.122844 0.120756 0.118843 0.117101 0.115529 0.114122 0.112880 0.111798 0.110876 0.110110 0.109500 0.109043 0.108739 0.108588 0.108588 0.108739 0.109043 0.109500 0.110110 0.110876 0.111798 0.112880 0.114122 0.115529 0.117101 0.118843 0.120756 0.122844 0.125109 0.127555 0.130184 0.132998 0.136000 0.139192 0.142574 0.146149 0.149916 0.153876 0.158029 0.169033 0.164928 0.161011 0.157283 0.153745 0.150395 0.147233 0.144257 0.141465 0.138856 0.136427 0.134177 0.132101 0.130198 0.128466 0.126900 0.125500 0.124262 0.123184 0.122265 0.121501 0.120892 0.120437 0.120134 0.119982 0.119982 0.120134 0.120437 0.120892 0.121501 0.122265 0.123184 0.124262 0.125500 0.126900 0.128466 0.130198 0.132101 0.134177 0.136427 0.138856 0.141465 0.144257 0.147233 0.150395 0.153745 0.157283 0.161011 0.164928 0.169033 0.180220 0.176163 0.172291 0.168604 0.165103 0.161787 0.158655 0.155706 0.152938 0.150350 0.147940 0.145705 0.143643 0.141751 0.140028 0.138471 0.137077 0.135845 0.134771 0.133855 0.133094 0.132487 0.132033 0.131731 0.131580 0.131580 0.131731 0.132033 0.132487 0.133094 0.133855 0.134771 0.135845 0.137077 0.138471 0.140028 0.141751 0.143643 0.145705 0.147940 0.150350 0.152938 0.155706 0.158655 0.161787 0.165103 0.168604 0.172291 0.176163 0.180220 0.191579 0.187571 0.183745 0.180100 0.176637 0.173355 0.170255 0.167333 0.164591 0.162025 0.159633 0.157415 0.155368 0.153489 0.151776 0.150228 0.148841 0.147615 0.146546 0.145634 0.144876 0.144271 0.143819 0.143518 0.143367 0.143367 0.143518 0.143819 0.144271 0.144876 0.145634 0.146546 0.147615 0.148841 0.150228 0.151776 0.153489 0.155368 0.157415 0.159633 0.162025 0.164591 0.167333 0.170255 0.173355 0.176637 0.180100 0.183745 0.187571 0.191579 0.203097 0.199140 0.195360 0.191758 0.188334 0.185088 0.182020 0.179128 0.176411 0.173868 0.171497 0.169297 0.167265 0.165399 0.163698 0.162159 0.160781 0.159561 0.158498 0.157590 0.156835 0.156234 0.155783 0.155483 0.155333 0.155333 0.155483 0.155783 0.156234 0.156835 0.157590 0.158498 0.159561 0.160781 0.162159 0.163698 0.165399 0.167265 0.169297 0.171497 0.173868 0.176411 0.179128 0.182020 0.185088 0.188334 0.191758 0.195360 0.199140 0.203097 0.214764 0.210857 0.207125 0.203567 0.200183 0.196974 0.193938 0.191076 0.188387 0.185868 0.183518 0.181336 0.179321 0.177470 0.175781 0.174252 0.172883 0.171671 0.170614 0.169711 0.168960 0.168361 0.167913 0.167615 0.167466 0.167466 0.167615 0.167913 0.168361 0.168960 0.169711 0.170614 0.171671 0.172883 0.174252 0.175781 0.177470 0.179321 0.181336 0.183518 0.185868 0.188387 0.191076 0.193938 0.196974 0.200183 0.203567 0.207125 0.210857 0.214764 0.226568 0.222713 0.219029 0.215515 0.212172 0.209000 0.205999 0.203168 0.200506 0.198012 0.195685 0.193523 0.191525 0.189689 0.188013 0.186496 0.185137 0.183932 0.182882 0.181985 0.181239 0.180643 0.180198 0.179901 0.179752 0.179752 0.179901 0.180198 0.180643 0.181239 0.181985 0.182882 0.183932 0.185137 0.186496 0.188013 0.189689 0.191525 0.193523 0.195685 0.198012 0.200506 0.203168 0.205999 0.209000 0.212172 0.215515 0.219029 0.222713 0.226568 0.238499 0.234696 0.231060 0.227592 0.224291 0.221157 0.218191 0.215392 0.212759 0.210291 0.207987 0.205846 0.203866 0.202046 0.200384 0.198879 0.197530 0.196334 0.195292 0.194400 0.193659 0.193068 0.192625 0.192330 0.192182 0.192182 0.192330 0.192625 0.193068 0.193659 0.194400 0.195292 0.196334 0.197530 0.198879 0.200384 0.202046 0.203866 0.205846 0.207987 0.210291 0.212759 0.215392 0.218191 0.221157 0.224291 0.227592 0.231060 0.234696 0.238499 0.250546 0.246796 0.243210 0.239787 0.236528 0.233434 0.230504 0.227737 0.225134 0.222693 0.220413 0.218293 0.216332 0.214529 0.212882 0.211390 0.210052 0.208866 0.207831 0.206946 0.206210 0.205623 0.205183 0.204890 0.204743 0.204743 0.204890 0.205183 0.205623 0.206210 0.206946 0.207831 0.208866 0.210052 0.211390 0.212882 0.214529 0.216332 0.218293 0.220413 0.222693 0.225134 0.227737 0.230504 0.233434 0.236528 0.239787 0.243210 0.246796 0.250546 0.262699 0.259003 0.255466 0.252090 0.248874 0.245820 0.242926 0.240193 0.237620 0.235206 0.232951 0.230854 0.228913 0.227127 0.225496 0.224017 0.222691 0.221515 0.220489 0.219611 0.218881 0.218298 0.217861 0.217571 0.217425 0.217425 0.217571 0.217861 0.218298 0.218881 0.219611 0.220489 0.221515 0.222691 0.224017 0.225496 0.227127 0.228913 0.230854 0.232951 0.235206 0.237620 0.240193 0.242926 0.245820 0.248874 0.252090 0.255466 0.259003 0.262699 0.274949 0.271307 0.267820 0.264491 0.261319 0.258304 0.255448 0.252749 0.250207 0.247822 0.245592 0.243518 0.241598 0.239830 0.238215 0.236751 0.235437 0.234272 0.233255 0.232385 0.231661 0.231083 0.230650 0.230361 0.230217 0.230217 0.230361 0.230650 0.231083 0.231661 0.232385 0.233255 0.234272 0.235437 0.236751 0.238215 0.239830 0.241598 0.243518 0.245592 0.247822 0.250207 0.252749 0.255448 0.258304 0.261319 0.264491 0.267820 0.271307 0.274949 0.287287 0.283698 0.280262 0.276980 0.273852 0.270878 0.268059 0.265395 0.262885 0.260529 0.258326 0.256275 0.254376 0.252628 0.251030 0.249581 0.248280 0.247126 0.246118 0.245256 0.244539 0.243966 0.243537 0.243251 0.243108 0.243108 0.243251 0.243537 0.243966 0.244539 0.245256 0.246118 0.247126 0.248280 0.249581 0.251030 0.252628 0.254376 0.256275 0.258326 0.260529 0.262885 0.265395 0.268059 0.270878 0.273852 0.276980 0.280262 0.283698 0.287287 0.299703 0.296168 0.292782 0.289548 0.286464 0.283532 0.280752 0.278123 0.275645 0.273319 0.271142 0.269116 0.267239 0.265511 0.263930 0.262497 0.261209 0.260067 0.259070 0.258216 0.257506 0.256938 0.256513 0.256229 0.256088 0.256088 0.256229 0.256513 0.256938 0.257506 0.258216 0.259070 0.260067 0.261209 0.262497 0.263930 0.265511 0.267239 0.269116 0.271142 0.273319 0.275645 0.278123 0.280752 0.283532 0.286464 0.289548 0.292782 0.296168 0.299703 0.312188 0.308707 0.305373 0.302186 0.299148 0.296257 0.293515 0.290922 0.288477 0.286181 0.284033 0.282031 0.280177 0.278469 0.276907 0.275489 0.274216 0.273086 0.272099 0.271254 0.270551 0.269989 0.269568 0.269287 0.269147 0.269147 0.269287 0.269568 0.269989 0.270551 0.271254 0.272099 0.273086 0.274216 0.275489 0.276907 0.278469 0.280177 0.282031 0.284033 0.286181 0.288477 0.290922 0.293515 0.296257 0.299148 0.302186 0.305373 0.308707 0.312188 0.324735 0.321308 0.318025 0.314886 0.311893 0.309044 0.306342 0.303785 0.301373 0.299108 0.296987 0.295012 0.293181 0.291493 0.289950 0.288549 0.287290 0.286172 0.285196 0.284361 0.283665 0.283109 0.282693 0.282415 0.282276 0.282276 0.282415 0.282693 0.283109 0.283665 0.284361 0.285196 0.286172 0.287290 0.288549 0.289950 0.291493 0.293181 0.295012 0.296987 0.299108 0.301373 0.303785 0.306342 0.309044 0.311893 0.314886 0.318025 0.321308 0.324735 0.337335 0.333963 0.330731 0.327640 0.324692 0.321886 0.319222 0.316702 0.314324 0.312090 0.309998 0.308048 0.306241 0.304575 0.303050 0.301666 0.300422 0.299318 0.298353 0.297527 0.296840 0.296290 0.295878 0.295603 0.295466 0.295466 0.295603 0.295878 0.296290 0.296840 0.297527 0.298353 0.299318 0.300422 0.301666 0.303050 0.304575 0.306241 0.308048 0.309998 0.312090 0.314324 0.316702 0.319222 0.321886 0.324692 0.327640 0.330731 0.333963 0.337335 0.349981 0.346663 0.343482 0.340440 0.337536 0.334773 0.332149 0.329665 0.327322 0.325119 0.323056 0.321133 0.319349 0.317705 0.316200 0.314833 0.313605 0.312514 0.311561 0.310745 0.310065 0.309522 0.309115 0.308843 0.308707 0.308707 0.308843 0.309115 0.309522 0.310065 0.310745 0.311561 0.312514 0.313605 0.314833 0.316200 0.317705 0.319349 0.321133 0.323056 0.325119 0.327322 0.329665 0.332149 0.334773 0.337536 0.340440 0.343482 0.346663 0.349981 0.362666 0.359401 0.356272 0.353277 0.350419 0.347698 0.345114 0.342668 0.340358 0.338187 0.336153 0.334257 0.332498 0.330876 0.329391 0.328042 0.326829 0.325753 0.324811 0.324005 0.323334 0.322797 0.322395 0.322126 0.321992 0.321992 0.322126 0.322395 0.322797 0.323334 0.324005 0.324811 0.325753 0.326829 0.328042 0.329391 0.330876 0.332498 0.334257 0.336153 0.338187 0.340358 0.342668 0.345114 0.347698 0.350419 0.353277 0.356272 0.359401 0.362666 0.375382 0.372171 0.369092 0.366146 0.363333 0.360655 0.358111 0.355701 0.353427 0.351287 0.349283 0.347414 0.345679 0.344080 0.342615 0.341284 0.340088 0.339025 0.338096 0.337300 0.336637 0.336107 0.335710 0.335445 0.335312 0.335312 0.335445 0.335710 0.336107 0.336637 0.337300 0.338096 0.339025 0.340088 0.341284 0.342615 0.344080 0.345679 0.347414 0.349283 0.351287 0.353427 0.355701 0.358111 0.360655 0.363333 0.366146 0.369092 0.372171 0.375382 0.388122 0.384965 0.381937 0.379039 0.376271 0.373635 0.371131 0.368759 0.366519 0.364412 0.362437 0.360595 0.358886 0.357309 0.355864 0.354552 0.353372 0.352324 0.351407 0.350621 0.349967 0.349444 0.349052 0.348791 0.348660 0.348660 0.348791 0.349052 0.349444 0.349967 0.350621 0.351407 0.352324 0.353372 0.354552 0.355864 0.357309 0.358886 0.360595 0.362437 0.364412 0.366519 0.368759 0.371131 0.373635 0.376271 0.379039 0.381937 0.384965 0.388122 0.400882 0.397777 0.394800 0.391949 0.389227 0.386633 0.384169 0.381834 0.379629 0.377554 0.375609 0.373794 0.372110 0.370556 0.369133 0.367839 0.366675 0.365641 0.364737 0.363963 0.363317 0.362801 0.362414 0.362156 0.362027 0.362027 0.362156 0.362414 0.362801 0.363317 0.363963 0.364737 0.365641 0.366675 0.367839 0.369133 0.370556 0.372110 0.373794 0.375609 0.377554 0.379629 0.381834 0.384169 0.386633 0.389227 0.391949 0.394800 0.397777 0.400882 0.413653 0.410601 0.407674 0.404871 0.402193 0.399642 0.397217 0.394919 0.392749 0.390706 0.388792 0.387005 0.385346 0.383815 0.382412 0.381137 0.379990 0.378971 0.378080 0.377316 0.376680 0.376171 0.375789 0.375535 0.375408 0.375408 0.375535 0.375789 0.376171 0.376680 0.377316 0.378080 0.378971 0.379990 0.381137 0.382412 0.383815 0.385346 0.387005 0.388792 0.390706 0.392749 0.394919 0.397217 0.399642 0.402193 0.404871 0.407674 0.410601 0.413653 0.426431 0.423431 0.420554 0.417798 0.415165 0.412656 0.410271 0.408010 0.405874 0.403864 0.401979 0.400220 0.398586 0.397079 0.395697 0.394441 0.393311 0.392307 0.391428 0.390675 0.390048 0.389546 0.389170 0.388919 0.388794 0.388794 0.388919 0.389170 0.389546 0.390048 0.390675 0.391428 0.392307 0.393311 0.394441 0.395697 0.397079 0.398586 0.400220 0.401979 0.403864 0.405874 0.408010 0.410271 0.412656 0.415165 0.417798 0.420554 0.423431 0.426431 0.439210 0.436262 0.433433 0.430724 0.428136 0.425668 0.423323 0.421099 0.418998 0.417020 0.415165 0.413434 0.411826 0.410341 0.408981 0.407744 0.406631 0.405641 0.404776 0.404034 0.403416 0.402922 0.402551 0.402304 0.402180 0.402180 0.402304 0.402551 0.402922 0.403416 0.404034 0.404776 0.405641 0.406631 0.407744 0.408981 0.410341 0.411826 0.413434 0.415165 0.417020 0.418998 0.421099 0.423323 0.425668 0.428136 0.430724 0.433433 0.436262 0.439210 0.451984 0.449088 0.446308 0.443645 0.441101 0.438675 0.436368 0.434182 0.432115 0.430169 0.428344 0.426640 0.425058 0.423597 0.422257 0.421040 0.419944 0.418969 0.418117 0.417386 0.416777 0.416290 0.415925 0.415682 0.415560 0.415560 0.415682 0.415925 0.416290 0.416777 0.417386 0.418117 0.418969 0.419944 0.421040 0.422257 0.423597 0.425058 0.426640 0.428344 0.430169 0.432115 0.434182 0.436368 0.438675 0.441101 0.443645 0.446308 0.449088 0.451984 0.464749 0.461904 0.459172 0.456555 0.454054 0.451670 0.449402 0.447252 0.445220 0.443306 0.441511 0.439835 0.438278 0.436840 0.435521 0.434323 0.433244 0.432285 0.431445 0.430726 0.430126 0.429647 0.429287 0.429047 0.428927 0.428927 0.429047 0.429287 0.429647 0.430126 0.430726 0.431445 0.432285 0.433244 0.434323 0.435521 0.436840 0.438278 0.439835 0.441511 0.443306 0.445220 0.447252 0.449402 0.451670 0.454054 0.456555 0.459172 0.461904 0.464749 0.477501 0.474705 0.472021 0.469450 0.466992 0.464648 0.462420 0.460306 0.458308 0.456426 0.454660 0.453011 0.451479 0.450065 0.448768 0.447588 0.446526 0.445582 0.444756 0.444048 0.443458 0.442985 0.442631 0.442395 0.442277 0.442277 0.442395 0.442631 0.442985 0.443458 0.444048 0.444756 0.445582 0.446526 0.447588 0.448768 0.450065 0.451479 0.453011 0.454660 0.456426 0.458308 0.460306 0.462420 0.464648 0.466992 0.469450 0.472021 0.474705 0.477501 0.490234 0.487487 0.484851 0.482324 0.479909 0.477606 0.475415 0.473338 0.471373 0.469523 0.467787 0.466165 0.464659 0.463267 0.461991 0.460831 0.459786 0.458857 0.458044 0.457347 0.456766 0.456301 0.455952 0.455720 0.455604 0.455604 0.455720 0.455952 0.456301 0.456766 0.457347 0.458044 0.458857 0.459786 0.460831 0.461991 0.463267 0.464659 0.466165 0.467787 0.469523 0.471373 0.473338 0.475415 0.477606 0.479909 0.482324 0.484851 0.487487 0.490234 0.502944 0.500246 0.497656 0.495174 0.492801 0.490538 0.488385 0.486343 0.484412 0.482593 0.480887 0.479292 0.477811 0.476442 0.475187 0.474046 0.473018 0.472104 0.471304 0.470618 0.470047 0.469589 0.469246 0.469017 0.468903 0.468903 0.469017 0.469246 0.469589 0.470047 0.470618 0.471304 0.472104 0.473018 0.474046 0.475187 0.476442 0.477811 0.479292 0.480887 0.482593 0.484412 0.486343 0.488385 0.490538 0.492801 0.495174 0.497656 0.500246 0.502944 0.515628 0.512978 0.510434 0.507996 0.505665 0.503441 0.501325 0.499319 0.497421 0.495633 0.493955 0.492388 0.490931 0.489586 0.488352 0.487229 0.486218 0.485319 0.484532 0.483858 0.483295 0.482845 0.482508 0.482283 0.482170 0.482170 0.482283 0.482508 0.482845 0.483295 0.483858 0.484532 0.485319 0.486218 0.487229 0.488352 0.489586 0.490931 0.492388 0.493955 0.495633 0.497421 0.499319 0.501325 0.503441 0.505665 0.507996 0.510434 0.512978 0.515628 0.528282 0.525679 0.523180 0.520785 0.518495 0.516310 0.514232 0.512260 0.510395 0.508638 0.506989 0.505448 0.504016 0.502693 0.501480 0.500376 0.499382 0.498498 0.497724 0.497061 0.496507 0.496065 0.495733 0.495511 0.495401 0.495401 0.495511 0.495733 0.496065 0.496507 0.497061 0.497724 0.498498 0.499382 0.500376 0.501480 0.502693 0.504016 0.505448 0.506989 0.508638 0.510395 0.512260 0.514232 0.516310 0.518495 0.520785 0.523180 0.525679 0.528282 0.005290 0.000544 -0.003957 -0.008213 -0.012226 -0.015998 -0.019533 -0.022835 -0.025908 -0.028758 -0.031390 -0.033811 -0.036027 -0.038043 -0.039866 -0.041502 -0.042957 -0.044236 -0.045343 -0.046283 -0.047061 -0.047679 -0.048140 -0.048446 -0.048599 -0.048599 -0.048446 -0.048140 -0.047679 -0.047061 -0.046283 -0.045343 -0.044236 -0.042957 -0.041502 -0.039866 -0.038043 -0.036027 -0.033811 -0.031390 -0.028758 -0.025908 -0.022835 -0.019533 -0.015998 -0.012226 -0.008213 -0.003957 0.000544 0.005290 0.010619 0.005888 0.001402 -0.002840 -0.006840 -0.010600 -0.014123 -0.017414 -0.020476 -0.023317 -0.025940 -0.028353 -0.030561 -0.032570 -0.034387 -0.036017 -0.037466 -0.038740 -0.039844 -0.040781 -0.041555 -0.042171 -0.042631 -0.042936 -0.043088 -0.043088 -0.042936 -0.042631 -0.042171 -0.041555 -0.040781 -0.039844 -0.038740 -0.037466 -0.036017 -0.034387 -0.032570 -0.030561 -0.028353 -0.025940 -0.023317 -0.020476 -0.017414 -0.014123 -0.010600 -0.006840 -0.002840 0.001402 0.005888 0.010619 0.016327 0.011614 0.007144 0.002917 -0.001069 -0.004815 -0.008326 -0.011605 -0.014657 -0.017488 -0.020103 -0.022507 -0.024708 -0.026711 -0.028522 -0.030147 -0.031592 -0.032862 -0.033962 -0.034896 -0.035668 -0.036282 -0.036740 -0.037045 -0.037196 -0.037196 -0.037045 -0.036740 -0.036282 -0.035668 -0.034896 -0.033962 -0.032862 -0.031592 -0.030147 -0.028522 -0.026711 -0.024708 -0.022507 -0.020103 -0.017488 -0.014657 -0.011605 -0.008326 -0.004815 -0.001069 0.002917 0.007144 0.011614 0.016327 0.022411 0.017717 0.013266 0.009055 0.005085 0.001353 -0.002145 -0.005412 -0.008454 -0.011275 -0.013881 -0.016278 -0.018472 -0.020469 -0.022275 -0.023896 -0.025337 -0.026603 -0.027700 -0.028632 -0.029403 -0.030015 -0.030472 -0.030776 -0.030927 -0.030927 -0.030776 -0.030472 -0.030015 -0.029403 -0.028632 -0.027700 -0.026603 -0.025337 -0.023896 -0.022275 -0.020469 -0.018472 -0.016278 -0.013881 -0.011275 -0.008454 -0.005412 -0.002145 0.001353 0.005085 0.009055 0.013266 0.017717 0.022411 0.028867 0.024194 0.019762 0.015570 0.011617 0.007899 0.004415 0.001160 -0.001871 -0.004683 -0.007281 -0.009671 -0.011858 -0.013850 -0.015651 -0.017267 -0.018705 -0.019969 -0.021064 -0.021994 -0.022763 -0.023374 -0.023831 -0.024134 -0.024285 -0.024285 -0.024134 -0.023831 -0.023374 -0.022763 -0.021994 -0.021064 -0.019969 -0.018705 -0.017267 -0.015651 -0.013850 -0.011858 -0.009671 -0.007281 -0.004683 -0.001871 0.001160 0.004415 0.007899 0.011617 0.015570 0.019762 0.024194 0.028867 0.035687 0.031038 0.026628 0.022455 0.018520 0.014818 0.011348 0.008105 0.005085 0.002283 -0.000307 -0.002689 -0.004871 -0.006858 -0.008655 -0.010268 -0.011703 -0.012964 -0.014058 -0.014986 -0.015754 -0.016365 -0.016821 -0.017123 -0.017274 -0.017274 -0.017123 -0.016821 -0.016365 -0.015754 -0.014986 -0.014058 -0.012964 -0.011703 -0.010268 -0.008655 -0.006858 -0.004871 -0.002689 -0.000307 0.002283 0.005085 0.008105 0.011348 0.014818 0.018520 0.022455 0.026628 0.031038 0.035687 0.042865 0.038242 0.033855 0.029703 0.025787 0.022102 0.018647 0.015417 0.012408 0.009615 0.007034 0.004658 0.002482 0.000500 -0.001293 -0.002903 -0.004336 -0.005596 -0.006688 -0.007615 -0.008383 -0.008993 -0.009448 -0.009751 -0.009901 -0.009901 -0.009751 -0.009448 -0.008993 -0.008383 -0.007615 -0.006688 -0.005596 -0.004336 -0.002903 -0.001293 0.000500 0.002482 0.004658 0.007034 0.009615 0.012408 0.015417 0.018647 0.022102 0.025787 0.029703 0.033855 0.038242 0.042865 0.050393 0.045797 0.041435 0.037306 0.033410 0.029743 0.026303 0.023087 0.020089 0.017307 0.014734 0.012365 0.010194 0.008217 0.006427 0.004819 0.003388 0.002130 0.001039 0.000112 -0.000655 -0.001265 -0.001720 -0.002023 -0.002173 -0.002173 -0.002023 -0.001720 -0.001265 -0.000655 0.000112 0.001039 0.002130 0.003388 0.004819 0.006427 0.008217 0.010194 0.012365 0.014734 0.017307 0.020089 0.023087 0.026303 0.029743 0.033410 0.037306 0.041435 0.045797 0.050393 0.058262 0.053695 0.049359 0.045255 0.041379 0.037731 0.034308 0.031106 0.028120 0.025348 0.022783 0.020421 0.018256 0.016283 0.014496 0.012891 0.011462 0.010204 0.009114 0.008187 0.007421 0.006811 0.006356 0.006053 0.005902 0.005902 0.006053 0.006356 0.006811 0.007421 0.008187 0.009114 0.010204 0.011462 0.012891 0.014496 0.016283 0.018256 0.020421 0.022783 0.025348 0.028120 0.031106 0.034308 0.037731 0.041379 0.045255 0.049359 0.053695 0.058262 0.066460 0.061925 0.057618 0.053538 0.049685 0.046057 0.042651 0.039464 0.036491 0.033729 0.031173 0.028818 0.026658 0.024689 0.022906 0.021303 0.019875 0.018619 0.017529 0.016603 0.015836 0.015226 0.014770 0.014468 0.014317 0.014317 0.014468 0.014770 0.015226 0.015836 0.016603 0.017529 0.018619 0.019875 0.021303 0.022906 0.024689 0.026658 0.028818 0.031173 0.033729 0.036491 0.039464 0.042651 0.046057 0.049685 0.053538 0.057618 0.061925 0.066460 0.074978 0.070476 0.066199 0.062146 0.058317 0.054710 0.051322 0.048150 0.045191 0.042440 0.039893 0.037545 0.035391 0.033426 0.031646 0.030045 0.028619 0.027364 0.026274 0.025348 0.024581 0.023971 0.023515 0.023212 0.023061 0.023061 0.023212 0.023515 0.023971 0.024581 0.025348 0.026274 0.027364 0.028619 0.030045 0.031646 0.033426 0.035391 0.037545 0.039893 0.042440 0.045191 0.048150 0.051322 0.054710 0.058317 0.062146 0.066199 0.070476 0.074978 0.083805 0.079337 0.075091 0.071067 0.067263 0.063678 0.060309 0.057154 0.054208 0.051469 0.048931 0.046591 0.044443 0.042483 0.040706 0.039108 0.037683 0.036428 0.035340 0.034413 0.033646 0.033036 0.032580 0.032277 0.032126 0.032126 0.032277 0.032580 0.033036 0.033646 0.034413 0.035340 0.036428 0.037683 0.039108 0.040706 0.042483 0.044443 0.046591 0.048931 0.051469 0.054208 0.057154 0.060309 0.063678 0.067263 0.071067 0.075091 0.079337 0.083805 0.092927 0.088496 0.084283 0.080289 0.076511 0.072949 0.069601 0.066463 0.063532 0.060805 0.058277 0.055945 0.053804 0.051849 0.050075 0.048479 0.047056 0.045803 0.044714 0.043788 0.043021 0.042410 0.041954 0.041651 0.041500 0.041500 0.041651 0.041954 0.042410 0.043021 0.043788 0.044714 0.045803 0.047056 0.048479 0.050075 0.051849 0.053804 0.055945 0.058277 0.060805 0.063532 0.066463 0.069601 0.072949 0.076511 0.080289 0.084283 0.088496 0.092927 0.102333 0.097941 0.093762 0.089799 0.086049 0.082511 0.079184 0.076065 0.073149 0.070435 0.067919 0.065595 0.063461 0.061511 0.059742 0.058148 0.056728 0.055475 0.054387 0.053461 0.052694 0.052084 0.051627 0.051324 0.051172 0.051172 0.051324 0.051627 0.052084 0.052694 0.053461 0.054387 0.055475 0.056728 0.058148 0.059742 0.061511 0.063461 0.065595 0.067919 0.070435 0.073149 0.076065 0.079184 0.082511 0.086049 0.089799 0.093762 0.097941 0.102333 0.112011 0.107658 0.103516 0.099585 0.095864 0.092352 0.089047 0.085947 0.083048 0.080348 0.077843 0.075529 0.073402 0.071458 0.069693 0.068103 0.066685 0.065434 0.064347 0.063421 0.062654 0.062044 0.061587 0.061284 0.061132 0.061132 0.061284 0.061587 0.062044 0.062654 0.063421 0.064347 0.065434 0.066685 0.068103 0.069693 0.071458 0.073402 0.075529 0.077843 0.080348 0.083048 0.085947 0.089047 0.092352 0.095864 0