# vtk DataFile Version 3.0
vtk output
ASCII
DATASET STRUCTURED_POINTS
DIMENSIONS 70 70 70
SPACING 0.617478 1.036000 0.795652
ORIGIN 10.688000 3.646000 1.000000
POINT_DATA 343000
SCALARS RTData float
LOOKUP_TABLE default
324.462172 321.315708 317.952077 314.376164 310.596062 306.623552 302.474561 298.169593 293.734071 289.198546 284.598691 279.974979 275.371888 270.836485 266.416177 262.155532 258.092222 254.252521 250.647258 247.269609 244.096274 241.093125 238.225118 235.468080 232.817201 230.284702 227.879059 225.563680 223.205536 220.539088 217.174479 212.663689 206.618386 198.864919 189.592592 179.357791 168.803951 158.218334 147.229763 134.800481 119.602329 101.292604 83.070448 71.988838 72.385042 80.654379 89.772086 96.134822 99.684483 101.426418 102.257128 102.768183 103.302335 104.016609 104.913724 105.848087 106.520160 106.481432 105.184194 102.106971 96.937588 89.716675 80.833016 70.872184 60.430718 49.996157 39.910694 30.385455 21.531180 13.387640 320.937419 317.500554 313.819161 309.896749 305.740267 301.360666 296.773485 291.999416 287.064839 282.002260 276.850611 271.655272 266.467642 261.343923 256.342652 251.520433 246.925514 242.589439 238.518179 234.685505 231.032304 227.475444 223.928063 220.329765 216.679821 213.058937 209.617021 206.503368 203.739488 201.092640 198.046313 193.901060 187.927517 179.549729 168.853147 157.211423 146.587683 137.923845 130.574839 122.929694 113.376512 101.451742 89.283423 81.427188 80.807458 85.374395 90.854842 94.846055 97.152381 98.421548 99.335545 100.400605 101.946055 104.151692 107.054045 110.517402 114.163686 117.276488 118.762823 117.355203 112.164841 103.253785 91.624338 78.624328 65.381394 52.613627 40.697916 29.795397 19.944531 11.114195 316.961488 313.221034 309.206786 304.920388 300.367006 295.555962 290.501374 285.222829 279.746052 274.103596 268.335542 262.490170 256.624452 250.803908 245.100918 239.590006 234.338473 229.391665 224.754710 220.375879 216.139016 211.872243 207.378422 202.490302 197.147802 191.482187 185.868924 180.867230 176.937875 174.020941 171.385691 167.961796 162.654390 153.929285 140.493525 125.460380 114.710726 110.333608 109.987554 110.357261 109.346170 106.365465 102.173543 98.366783 96.172725 95.513812 95.493219 95.435489 95.236998 95.149672 95.527163 96.700743 98.943443 102.467026 107.414053 113.806272 121.394430 129.340756 135.768892 137.732723 132.668154 120.663880 104.447969 87.051526 70.311542 54.960504 41.171089 28.917349 18.113455 8.644568 312.594571 308.547355 304.196728 299.542190 294.586736 289.337485 283.806322 278.010567 271.973679 265.726107 259.306399 252.762807 246.155480 239.558906 233.063159 226.770654 220.783484 215.177596 209.966994 205.071080 200.300126 195.363542 189.902204 183.560712 176.118121 167.660108 158.775834 150.689308 144.772267 141.330701 139.067203 135.991990 130.378559 120.354974 104.665721 87.911642 79.227390 81.514964 89.362856 97.380674 103.219690 106.194874 106.676250 105.306314 102.775377 99.793568 96.848260 94.215256 92.100927 90.726607 90.342840 91.210142 93.580890 97.709401 103.879120 112.371432 123.262100 135.901122 147.892112 154.244869 149.764937 134.585991 114.121223 93.335238 74.297636 57.300394 42.161251 28.751098 17.011774 6.855528 307.901717 303.555312 298.877352 293.865269 288.519920 282.846181 276.853528 270.556613 263.975883 257.138436 250.079479 242.845055 235.496828 228.119348 220.828214 213.772773 207.119709 201.001302 195.433296 190.257737 185.171829 179.792107 173.662563 166.288096 157.326012 146.777047 135.179323 124.260327 116.196793 111.567737 108.774085 105.251736 99.120713 89.577217 77.476078 66.777469 63.299825 68.725992 78.878887 89.308598 97.629062 102.638480 104.651090 104.172373 101.730453 98.231952 94.507081 91.051120 88.105738 85.859207 84.584318 84.617702 86.251638 89.720979 95.343166 103.551315 114.494994 127.333971 139.484127 146.316095 143.429589 131.098318 113.858520 95.730290 78.316437 61.748221 45.988580 31.391217 18.400456 7.191399 302.947771 298.319989 293.335744 287.990870 282.284640 276.220351 269.805859 263.054069 255.983457 248.618893 240.993394 233.152048 225.160027 217.116863 209.177072 201.568820 194.581256 188.460352 183.177984 178.268837 173.115332 167.387021 160.888397 153.234230 144.045242 133.279016 121.376294 109.719053 100.040953 92.992236 87.745409 82.833243 77.210613 70.759158 64.594359 60.991959 62.139304 68.206838 77.056749 85.992304 93.147341 97.634161 99.346276 98.693394 96.487008 93.691431 90.976860 88.461401 85.873976 83.085449 80.528082 79.026030 79.213763 81.261219 85.263228 91.502707 99.800469 108.991934 116.856271 121.060246 120.531849 115.730470 107.484325 96.471593 83.571256 69.423137 54.120164 38.538792 23.998642 11.191973 297.792635 292.909772 287.650082 282.008547 275.983808 269.578812 262.801427 255.664999 248.188962 240.399801 232.333172 224.038780 215.590818 207.107760 198.784225 190.928442 183.966523 178.297995 173.852259 169.681989 164.661068 158.637155 151.956000 144.464828 135.720906 125.569445 114.330183 102.712379 91.558783 81.576704 73.294841 66.942138 62.102630 58.181954 55.588757 55.903399 60.289985 67.907842 76.511317 84.019163 89.217179 91.760994 92.005310 90.804076 89.247880 88.274614 88.150476 88.068354 86.636072 83.285528 78.891189 75.414319 74.582275 76.633591 80.762427 86.086486 91.721740 96.723317 100.053632 101.261643 100.955833 99.843350 97.552470 93.118303 86.203067 76.891532 64.677713 50.087031 34.687346 19.866939 292.487857 287.382082 281.884211 275.989146 269.695873 263.008284 255.936017 248.495309 240.709967 232.612763 224.247979 215.676580 206.986435 198.310655 189.855430 181.929288 174.936471 169.237568 164.776274 160.770093 156.262408 150.987102 144.937904 137.738590 129.161516 119.356712 108.545816 96.925407 84.744043 72.663907 62.375530 55.873456 52.961421 51.681383 51.499038 54.031664 60.474346 69.252923 77.411686 82.979563 85.394768 85.120286 83.302138 81.394964 80.719410 81.978192 84.672784 86.674948 85.488180 80.920313 74.599570 69.715975 69.531437 74.249463 81.389075 87.958785 92.135545 93.664732 93.147061 91.464381 89.624912 88.442761 88.088652 87.986977 87.027586 83.755746 76.631594 64.907501 49.341497 32.014654 287.075212 281.781813 276.085909 269.982827 263.472482 256.560421 249.258965 241.588469 233.578790 225.271202 216.721259 208.003513 199.219278 190.508305 182.062581 174.132892 167.003926 160.900721 155.825006 151.465072 147.387184 143.212908 138.028863 130.454360 120.955944 111.046186 101.210253 91.106876 80.418836 69.642992 60.571908 55.363218 54.133138 55.198120 57.694602 62.137095 68.720205 75.901606 81.256419 83.132791 81.337421 77.084617 72.533225 70.000091 71.027543 75.584691 81.703706 85.873903 84.721239 77.540711 67.505411 60.662657 61.509810 69.112209 79.006854 86.933630 90.816223 91.010337 89.050193 86.433018 84.299143 83.443461 84.207475 86.251166 88.379613 88.574623 84.332020 74.237147 58.924621 40.342686 281.587311 276.142538 270.288986 264.022485 257.343829 250.259983 242.785459 234.943860 226.769686 218.310505 209.629753 200.810454 191.960082 183.216004 174.748922 166.757791 159.445099 152.962229 147.332698 142.397344 137.826822 133.089718 127.153276 118.912516 109.100072 99.840848 92.121127 85.105337 77.826517 70.562545 64.592072 61.244915 60.985311 63.371105 67.620603 72.835607 78.039230 82.024948 83.214755 80.249896 73.125463 64.005005 56.546803 54.634725 60.644873 73.574195 88.581289 98.990622 99.819239 90.651509 76.474352 65.444465 62.979799 67.804816 75.136236 81.136313 84.128024 84.260367 82.658970 80.596348 79.114219 78.935257 80.339387 82.822457 84.723573 83.831134 78.682003 68.701306 54.395148 37.673701 276.049507 270.489447 264.517725 258.130404 251.328588 244.119665 236.518705 228.550033 220.248981 211.663843 202.858068 193.912655 184.928515 176.028031 167.353970 159.062421 151.305224 144.198315 137.777576 131.951534 126.461779 120.853937 114.514715 107.023840 98.863076 91.420994 85.471880 80.272184 74.915978 69.589791 65.357471 63.400266 64.325113 67.905881 73.024960 77.693625 80.352342 80.470852 77.184550 69.353607 57.158330 43.574643 33.882964 34.420397 49.572286 77.435355 108.742229 131.653004 138.566639 129.411498 111.272848 93.537525 82.083526 77.335497 76.574841 77.033982 77.041561 76.016388 74.228302 72.316825 70.899533 70.368754 70.717660 71.294402 70.709497 67.522903 61.212510 52.003786 40.551441 28.025575 270.481956 264.842347 258.791237 252.324559 245.443045 238.153355 230.469306 222.413182 214.017086 205.324265 196.390304 187.284034 178.087895 168.897295 159.818347 150.963244 142.443026 134.358779 126.793666 119.805637 113.409863 107.536049 101.994335 96.563393 91.218252 86.172889 81.485428 76.810379 71.825158 66.807853 62.859855 61.425994 63.030841 66.763012 70.988632 73.896509 74.172925 71.201096 64.311783 53.005419 38.090073 22.707328 12.902909 16.995117 40.676450 80.064947 122.341711 154.332224 168.848555 162.455685 141.940170 118.804576 100.147724 87.677247 79.688766 74.472052 70.890277 67.857083 64.995607 62.421554 60.313476 58.707158 57.390897 55.851324 53.367164 49.325626 43.529993 36.199226 27.804612 18.945382 264.900839 259.217298 253.125621 246.621453 239.704807 232.380988 224.661543 216.565188 208.118613 199.357037 190.324358 181.072701 171.661173 162.153719 152.616236 143.113840 133.710978 124.481230 115.540119 107.111348 99.584827 93.420951 88.828291 85.518949 82.879101 80.337700 77.513629 74.175873 70.283594 66.199893 62.936558 61.791633 63.068528 65.606613 67.832619 68.493636 66.673584 61.688591 53.085036 40.960098 26.561837 12.933361 5.378310 10.852812 34.195249 72.417889 113.944102 145.995581 161.163345 157.283146 140.423446 119.874404 101.514603 87.312381 76.897483 69.350049 63.751313 59.250069 55.428786 52.168475 49.396807 46.982355 44.706085 42.257296 39.280198 35.491896 30.794007 25.287433 19.207545 12.845379 259.318350 253.626350 247.533234 241.034584 234.129919 226.823428 219.124672 211.049181 202.618823 193.861805 184.812116 175.508232 165.990931 156.300198 146.471540 136.532694 126.503919 116.412288 106.349967 96.629025 87.993737 81.485569 77.689318 76.198099 75.856129 75.573854 74.783531 73.331903 71.335153 69.167989 67.453759 66.789715 67.218012 68.063326 68.355301 67.219105 63.965661 58.108525 49.482078 38.487188 26.405263 15.664651 9.843506 12.958557 27.534437 52.048400 80.166042 103.595650 116.526833 118.010485 111.145931 100.139743 88.170891 77.089806 67.792255 60.449869 54.681749 49.989382 46.043305 42.635023 39.580100 36.749257 34.136775 31.718508 29.229198 26.308096 22.789273 18.723022 14.253717 9.542053 253.741816 248.075984 242.020053 235.570105 228.725898 221.491491 213.875829 205.893187 197.563392 188.911683 179.968055 170.765966 161.340327 151.724880 141.949343 132.037332 122.008040 111.891826 101.790603 92.040419 83.440433 77.110375 73.689784 72.803952 73.292021 74.030154 74.407560 74.232422 73.594158 72.786552 72.180393 72.004629 72.154080 72.200783 71.591877 69.820739 66.456233 61.152736 53.787534 44.673952 34.718621 25.450939 18.841101 16.796839 20.414867 29.431268 42.119982 55.621308 67.146422 74.705472 77.262181 75.236981 70.490226 63.880463 56.269175 49.776653 44.945726 41.162462 37.920198 34.857860 31.604029 28.059170 24.953957 23.189373 22.226132 20.828136 18.560354 15.611174 12.235576 8.599108 248.172798 242.565551 236.583082 230.222655 223.485189 216.375881 208.904798 201.087382 192.944798 184.504032 175.797661 166.863254 157.742455 148.480019 139.123407 129.724184 120.343907 111.070709 102.059363 93.606120 86.214319 80.487548 76.777650 74.942113 74.501213 74.867469 75.394825 75.530595 75.106545 74.458114 74.179621 74.563620 75.251543 75.558448 75.060626 73.755426 71.631650 68.290261 63.221030 56.314297 48.007236 39.153222 30.821040 24.057699 19.711488 18.510619 21.024054 27.075557 35.641059 44.437783 50.095105 51.477803 51.825646 50.213136 45.140602 40.183291 36.878694 34.566727 32.567286 30.383522 27.504933 23.817218 20.570639 19.420248 19.598290 19.214099 17.714975 15.428987 12.697502 9.696415 242.607033 237.086977 231.209663 224.974069 218.382999 211.443764 204.168882 196.576748 188.692232 180.547173 172.180714 163.639497 154.977807 146.257887 137.550889 128.939077 120.520000 112.412737 104.763516 97.740026 91.493141 86.087704 81.519645 77.974499 75.950715 75.599585 76.066995 75.958386 74.552491 72.553838 71.724961 73.051018 75.436877 77.087946 77.452471 77.272283 77.121460 76.474117 74.135732 69.409231 62.484642 54.054116 44.838741 35.542235 27.074454 20.547648 17.038631 17.179201 20.751060 26.432917 31.894344 35.312687 36.817215 36.448368 34.624972 32.939054 32.074939 31.698964 31.320232 30.559251 29.152089 27.133352 25.110116 23.762230 22.858291 21.677729 19.937382 17.742182 15.240847 12.517632 237.035659 231.626365 225.879580 219.796164 213.381041 206.643958 199.600297 192.271904 184.687916 176.885538 168.910752 160.818921 152.675290 144.555415 136.545489 128.742358 121.252268 114.185657 107.641812 101.673549 96.228903 91.117793 86.173822 81.743045 78.801710 77.830658 77.923829 77.254738 74.742519 71.366958 69.862122 71.823315 75.623824 78.628090 80.094597 81.010227 82.231872 83.243278 82.493685 78.823735 72.547632 64.939865 56.472196 46.937784 36.945834 27.847738 20.874593 16.733016 15.536685 16.802064 19.505289 22.432523 24.784549 26.487727 27.998353 29.759952 31.782589 33.704850 35.076671 35.581131 35.142893 33.932031 32.269994 30.440325 28.531667 26.492998 24.279925 21.892800 19.344124 16.641405 231.447551 226.167225 220.569498 214.656846 208.435978 201.918645 195.122523 188.072133 180.799763 173.346353 165.762277 158.107925 150.453986 142.881252 135.479664 128.346060 121.579582 115.272761 109.495129 104.266600 99.526413 95.134124 90.987277 87.277943 84.537593 83.045161 82.233733 81.048423 78.929608 76.505976 75.348575 76.328909 78.434966 80.031935 80.610027 81.012337 82.301303 84.186747 84.822018 82.465939 77.265556 70.739896 63.278282 54.254476 44.092819 34.181964 25.771632 19.571207 15.811593 14.362509 14.830420 16.698963 19.525042 23.073848 27.268878 31.993002 36.890902 41.300036 44.411906 45.667042 45.088839 43.206812 40.664531 37.912918 35.158870 32.451910 29.773597 27.085280 24.346642 21.524269 225.832093 220.694341 215.258333 209.527512 203.509553 197.217181 190.669070 183.890766 176.915611 169.785592 162.552018 155.275894 148.027820 140.887168 133.940223 127.276893 120.985455 115.144751 109.813508 105.017844 100.742375 96.938583 93.567190 90.658874 88.304965 86.513958 85.087756 83.730904 82.310672 81.011737 80.189968 79.920550 79.690969 78.713220 76.774433 75.093472 75.581557 78.315975 80.906470 80.921591 77.795293 72.222109 64.792242 55.858585 46.168696 36.793003 28.663100 22.368668 18.181614 16.129955 16.069219 17.767165 20.999331 25.609692 31.486178 38.426857 45.892131 52.757139 57.499827 59.058931 57.540020 54.065033 49.904395 45.813174 42.049303 38.623071 35.457765 32.453962 29.515388 26.563240 220.181435 215.197027 209.931821 204.389347 198.577138 192.507531 186.198526 179.674683 172.968002 166.118702 159.175803 152.197348 145.250077 138.408328 131.751902 125.362664 119.319740 113.693382 108.538055 103.886070 99.744305 96.097347 92.918444 90.182168 87.864935 85.928582 84.308285 82.930051 81.747435 80.754713 79.937151 79.164543 78.109702 76.346632 73.836594 71.617132 71.286517 72.951563 74.694172 74.524929 71.752879 66.618817 59.683724 51.631879 43.252906 35.348194 28.597026 23.484250 20.282714 19.050066 19.659118 21.903770 25.630665 30.802069 37.443459 45.441630 54.202729 62.320464 67.860550 69.540511 67.460608 62.963038 57.642388 52.465651 47.817308 43.784330 40.287633 37.148659 34.174559 31.219249 214.491438 209.670638 204.584806 199.236619 193.632297 187.782342 181.702353 175.413882 168.945291 162.332530 155.619745 148.859551 142.112808 135.447668 128.937703 122.658907 116.685544 111.084985 105.912046 101.203702 96.975386 93.220234 89.912768 87.018875 84.512375 82.388980 80.655679 79.292262 78.229908 77.375668 76.637394 75.907854 75.038387 73.877169 72.432461 71.041153 70.139382 69.625398 68.712670 66.562380 62.797291 57.506028 51.079621 44.088304 37.180641 30.983069 26.024994 22.699497 21.217529 21.532897 23.374129 26.505026 30.833208 36.299389 42.949092 50.712126 58.964113 66.365386 71.279250 72.764352 71.102508 67.215577 61.990240 56.232934 50.793733 46.374054 43.075903 40.410036 37.854598 35.164978 208.760722 204.115643 199.220384 194.075954 188.686208 183.058507 177.204460 171.140752 164.890026 158.481761 151.953061 145.349254 138.724113 132.139514 125.664299 119.372115 113.338020 107.633790 102.321952 97.448718 93.035964 89.072721 85.509985 82.274539 79.332034 76.789007 74.878326 73.703218 73.059711 72.638239 72.263127 71.880547 71.446927 70.881740 70.097489 69.038125 67.642376 65.748983 63.083253 59.382040 54.544358 48.709024 42.258423 35.763517 29.866608 25.129443 21.934434 20.486587 20.821120 22.728540 25.806586 29.862054 34.920435 40.844731 47.601400 55.034652 62.320193 67.980127 70.676925 70.684531 69.632712 67.611313 63.331120 56.832676 50.033545 45.315789 43.189542 42.088083 40.600229 38.439562 202.987742 198.534110 193.845717 188.921380 183.761845 178.370319 172.753116 166.920443 160.887318 154.674620 148.310214 141.830088 135.279367 128.713032 122.196086 115.802842 109.614885 103.717119 98.191068 93.104224 88.493548 84.340961 80.544548 76.920589 73.344169 70.094321 67.928925 67.266505 67.563958 68.022634 68.348249 68.599272 68.811822 68.868584 68.561270 67.675547 66.016746 63.431559 59.807887 55.068395 49.226000 42.478594 35.293614 28.441289 22.855099 19.229496 17.702853 18.034170 19.935572 23.126295 27.271342 32.095076 37.552728 43.900696 51.429365 59.668736 67.164496 72.116380 73.385272 72.076382 70.838249 69.490772 65.612333 58.817331 51.464914 46.646726 45.029336 44.572993 43.476959 41.469386 197.166191 192.923940 188.464902 183.785621 178.883467 173.756958 168.406243 162.833772 157.045217 151.050668 144.866157 138.515470 132.032203 125.461928 118.864244 112.314360 105.903621 99.737960 93.932481 88.598994 83.821669 79.616591 75.882466 72.391087 68.950050 65.823694 63.853620 63.525009 64.253506 65.192315 66.090334 67.056886 68.063178 68.831069 69.156902 68.939892 67.731277 65.131191 61.097714 55.681774 48.950520 41.105578 32.652975 24.639009 18.629511 15.755971 15.746990 17.592260 20.602822 24.496632 29.080267 34.115317 39.598708 46.297619 55.093418 65.116020 73.952083 79.701104 81.804310 81.019198 78.730354 75.400436 70.653327 64.692665 58.713487 54.126568 51.240601 49.143932 46.948885 44.384303 191.279488 187.271708 183.069828 178.668633 174.062487 169.245365 164.211032 158.953460 153.467597 147.750601 141.803684 135.634630 129.261013 122.714036 116.042785 109.318550 102.638738 96.129768 89.948086 84.276248 79.303006 75.166883 71.867249 69.225594 67.009871 65.187688 64.001295 63.621926 63.876135 64.527113 65.569067 67.079578 68.889583 70.544717 71.920209 73.152936 73.364484 71.674877 67.995333 62.469824 55.294329 46.814476 37.656279 28.973359 22.482658 19.426282 19.454152 21.378237 24.390333 28.202390 32.749530 38.009000 44.125639 51.719683 61.202867 71.299587 79.771149 85.335453 87.531753 86.549593 83.356383 78.959102 73.984039 68.860589 63.998425 59.717397 56.068406 52.836795 49.754869 46.649894 185.295569 181.545499 177.630585 173.545034 169.281374 164.830063 160.179191 155.314404 150.219249 144.876196 139.268603 133.383895 127.218083 120.781517 114.105427 107.248413 100.301803 93.393813 86.697620 80.457868 75.033335 70.850305 68.125140 66.602664 65.747479 65.151899 64.679322 64.363059 64.308682 64.691243 65.745298 67.657168 70.405284 73.711416 77.200613 80.369393 82.336748 82.239895 79.659889 74.591823 67.405405 58.810390 49.711884 41.113950 34.071514 29.435235 27.507489 27.946960 29.997228 33.028344 36.899856 41.831835 48.139635 55.987424 64.909964 73.509751 80.414062 85.117516 87.053034 85.990431 82.810704 78.636577 74.175495 69.767280 65.569982 61.648015 57.991125 54.530508 51.173102 47.834637 179.163567 175.689656 172.087647 168.352986 164.478354 160.452731 156.260389 151.880002 147.284137 142.439570 137.309019 131.854899 126.045575 119.863989 113.317648 106.447729 99.333833 92.091520 84.872104 77.917647 71.746039 67.233830 64.968844 64.453402 64.596126 64.698103 64.579741 64.305111 64.083775 64.264155 65.255455 67.400413 70.865358 75.562839 81.073781 86.535597 90.688298 92.425342 91.325101 87.309993 80.584104 72.057239 62.900009 53.887178 45.439243 38.333123 34.005602 33.142492 34.606009 36.823419 39.369763 42.679800 47.282370 53.424744 60.781916 68.306741 74.702862 79.062621 80.949821 80.493609 78.370794 75.341340 71.920817 68.379589 64.843588 61.364431 57.951269 54.586647 51.239504 47.877220 172.814287 169.623885 166.348907 162.988231 159.537289 155.986480 152.319252 148.509956 144.521811 140.305647 135.800546 130.937927 125.650504 119.886237 113.625124 106.894787 99.780718 92.428201 85.041632 77.926333 71.645444 67.067455 64.694334 63.922977 63.686339 63.419144 63.005962 62.468573 61.924473 61.756605 62.517914 64.680224 68.501014 73.967998 80.674048 87.585096 93.082253 95.950105 96.200603 93.778092 88.323123 80.621298 72.027589 63.284538 54.581429 46.614313 41.084890 38.951260 39.056730 39.629213 40.144506 40.993895 42.736654 46.058160 51.444922 58.173799 64.573105 69.379681 72.156679 73.026757 72.394895 70.725600 68.403744 65.696451 62.770794 59.723106 56.603015 53.430842 50.210478 46.939003 166.166311 163.249294 160.295103 157.308075 154.288975 151.232767 148.125595 144.940883 141.634693 138.141107 134.369673 130.208946 125.541209 120.269514 114.347192 107.794293 100.704311 93.268896 85.826925 78.888040 73.055003 68.781432 66.015803 64.162904 62.650883 61.206661 59.694309 58.169073 56.720222 55.792422 56.076359 58.049531 61.832014 67.279091 73.970225 81.041640 87.184461 91.210041 92.625985 91.271202 87.239525 81.338344 74.625472 67.749218 60.978151 54.690259 49.595852 46.107391 43.795163 41.989375 40.465708 39.338188 38.926643 40.165707 44.226577 50.554619 57.073280 62.312639 65.791801 67.513356 67.715943 66.756284 64.996211 62.726272 60.144655 57.371322 54.472237 51.480630 48.412119 45.274469 159.138823 156.463244 153.796713 151.150082 148.531037 145.941304 143.372459 140.799685 138.172827 135.404629 132.358899 128.849020 124.668520 119.668900 113.836794 107.256996 99.977490 92.027298 83.727218 75.981196 69.961360 66.160373 63.929879 62.159712 60.132811 57.664706 54.769547 51.504811 48.200951 45.805492 45.453497 47.430207 51.196807 56.195189 62.008303 68.102476 73.713604 78.001399 80.331810 80.466960 78.617060 75.327721 71.199743 66.670920 62.008915 57.425168 53.137098 49.299894 45.952499 43.114047 40.892920 39.488418 39.225605 40.681877 44.359615 49.798121 55.640441 60.625756 64.035603 65.647495 65.635645 64.420537 62.455087 60.076180 57.479585 54.760092 51.956659 49.082375 46.140660 43.133166 151.670558 149.182848 146.742945 144.367604 142.071023 139.861656 137.736959 135.674577 133.617550 131.450375 128.966178 125.844551 121.710726 116.373044 110.075551 103.210638 95.715316 87.017905 76.886328 66.866505 59.952434 57.422166 57.308050 57.035462 55.486982 52.623008 48.669758 43.847066 38.680949 34.663487 33.722054 35.872741 39.565189 43.827865 48.360267 52.975522 57.449054 61.493823 64.694051 66.631552 67.145873 66.374147 64.588585 62.058517 59.011023 55.644804 52.148497 48.709218 45.522914 42.814002 40.851065 39.945090 40.429714 42.593479 46.484621 51.642394 57.068030 61.641327 64.633999 65.739119 65.036336 63.063517 60.469186 57.675870 54.860896 52.064225 49.273251 46.463870 43.615774 40.716675 143.741894 141.373533 139.078743 136.877759 134.788587 132.823660 130.984061 129.249277 127.558596 125.777965 123.648342 120.739839 116.537879 110.895368 104.483999 97.789755 90.468339 81.950960 71.483030 60.610281 53.292449 51.319358 52.054227 52.234714 50.692705 47.597016 43.384939 38.469442 33.455558 29.509385 27.916630 28.703526 30.823836 33.443874 36.143104 38.778739 41.723277 45.594846 50.094877 54.040255 56.630679 57.770361 57.648023 56.488984 54.529914 52.022025 49.203873 46.298402 43.547973 41.234281 39.668427 39.171004 40.039586 42.476612 46.447567 51.483633 56.610592 60.769799 63.437500 64.339857 63.357266 61.023767 58.107580 55.093040 52.157691 49.319711 46.542844 43.783316 41.006253 38.189745 135.394836 133.075635 130.840360 128.709201 126.699774 124.823861 123.082047 121.454547 119.885107 118.253442 116.334641 113.767614 110.127139 105.250263 99.581741 93.681271 87.544411 80.676104 72.633906 64.364911 57.968535 54.433656 52.586775 50.728611 48.047873 44.508637 40.371503 35.990781 31.819674 28.418444 26.264179 25.456469 25.717573 26.614312 27.679816 28.704203 30.430997 34.190089 39.680976 44.969800 48.799220 51.002536 51.698651 51.029051 49.366278 47.282136 45.103081 42.828242 40.535032 38.521166 37.152427 36.753222 37.577785 39.774955 43.301483 47.796578 52.529488 56.611566 59.364820 60.420536 59.770608 57.847235 55.239732 52.387346 49.517343 46.707184 43.954776 41.227275 38.489285 35.715922 126.745043 124.420820 122.177897 120.033126 117.999536 116.083266 114.279334 112.565510 110.893093 109.173486 107.262633 104.956649 102.033122 98.370563 94.070929 89.374544 84.381425 78.977881 73.154130 67.314675 62.093492 57.812226 54.236663 50.879079 47.375695 43.598495 39.604868 35.575439 31.769099 28.471096 25.920960 24.247981 23.453639 23.430707 24.013932 25.167305 27.268501 30.792063 35.285991 39.525280 42.816585 45.097063 45.976712 44.877653 42.411839 40.394459 39.416820 38.399607 36.791815 35.012740 33.653278 33.124552 33.671223 35.408775 38.306183 42.142913 46.485450 50.726391 54.194020 56.305374 56.751002 55.630098 53.388288 50.573592 47.602675 44.679773 41.846180 39.066285 36.290621 33.485107 117.981654 115.632357 113.356546 111.166207 109.067044 107.055193 105.114077 103.211865 101.299751 99.311117 97.162573 94.760812 92.022347 88.907646 85.448444 81.729126 77.822346 73.756159 69.583626 65.471907 61.611376 58.046804 54.697488 51.431584 48.099346 44.589493 40.887571 37.092006 33.384556 29.979757 27.080799 24.851984 23.403594 22.794545 23.062366 24.261784 26.433616 29.388425 32.467693 34.921575 36.888434 39.028202 40.611739 40.009562 37.548051 35.645020 35.138451 34.561436 33.149269 31.384912 29.948767 29.297279 29.688519 31.228088 33.880435 37.516667 41.979080 47.012587 52.024079 55.967118 57.751664 56.990168 54.281933 50.701444 47.071577 43.711136 40.605189 37.632066 34.687689 31.719669 109.353678 107.007351 104.734293 102.543878 100.435033 98.390710 96.373874 94.327728 92.182533 89.869009 87.334875 84.559482 81.563596 78.413763 75.216543 72.087454 69.080982 66.129245 63.179101 60.525788 58.455733 56.618732 54.652636 52.477344 50.018502 47.167191 43.883719 40.251860 36.454947 32.723055 29.321996 26.547409 24.604722 23.504966 23.188455 23.681748 25.067891 27.276283 29.833382 32.096374 34.064199 36.205397 38.045631 38.445090 37.329338 35.700213 34.133293 32.401844 30.390051 28.410859 26.919332 26.328394 26.947383 28.872792 31.883611 35.640591 40.151138 45.727265 52.084741 57.649646 60.494355 59.839473 56.405572 51.920550 47.668521 43.955022 40.584285 37.312821 34.012680 30.664537 101.144769 98.881893 96.715847 94.663530 92.726166 90.875736 89.041978 87.108778 84.931481 82.379962 79.393793 76.019542 72.407965 68.777112 65.363098 62.364228 59.864761 57.775674 55.994415 54.797202 54.434986 54.390962 54.112929 53.379510 52.062625 50.085112 47.391454 43.977064 39.970651 35.603927 31.300741 27.830906 25.740303 24.660787 23.963374 23.522919 23.686894 24.963925 27.374660 30.199552 32.766243 34.833351 36.198281 36.610416 36.062101 34.794458 33.049820 30.983787 28.775829 26.712543 25.185582 24.660485 25.574732 28.027486 31.402206 34.813096 38.202315 42.420719 47.897085 53.311370 56.660911 57.024801 54.900621 51.789167 48.695158 45.650558 42.349188 38.648312 34.641231 30.524507 93.642576 91.583071 89.680375 87.983226 86.525629 85.294430 84.183745 82.956069 81.256580 78.727619 75.196706 70.806579 65.971580 61.203263 56.947073 53.504745 51.016823 49.475987 48.800948 48.936420 49.772479 50.974059 52.028118 52.422522 51.984542 50.931726 49.221791 46.494273 42.708103 38.168576 33.461804 29.688590 27.613607 26.556294 25.559535 24.563100 24.070915 24.664949 26.463757 28.844181 31.108745 32.926363 34.176513 34.796966 34.766551 34.103794 32.855289 31.108652 29.030549 26.898989 25.109506 24.143285 24.445121 26.102991 28.477412 30.619309 32.355598 34.491295 37.765415 41.770022 45.406567 48.008905 49.704965 50.787833 51.005915 49.722232 46.612223 42.008440 36.639668 31.182255 87.119651 85.386319 83.894091 82.759832 82.112203 82.034179 82.444363 82.930795 82.669115 80.669461 76.376393 70.128568 62.982496 56.093044 50.254177 45.834239 42.909842 41.400405 41.152767 41.981643 43.653618 45.809925 47.894474 49.286959 49.760717 49.569479 48.686615 46.736799 43.753636 40.196727 36.620181 33.581543 31.284431 29.320827 27.455995 26.240520 26.121728 26.822214 27.979768 29.393103 30.900183 32.369305 33.689493 34.746220 35.408799 35.531047 34.978711 33.691860 31.755481 29.431506 27.125215 25.291721 24.296198 24.234264 24.808147 25.519639 26.173009 27.087457 28.741670 31.402059 35.127488 39.886255 45.406560 50.765646 54.356729 54.761308 51.592714 45.687839 38.599589 31.596624 81.860579 80.534636 79.489357 78.920887 79.100011 80.305987 82.616153 85.489245 87.389659 86.266541 80.978243 72.132579 61.796772 52.164142 44.464712 39.013913 35.663968 34.113467 34.041829 35.148509 37.137562 39.662588 42.275763 44.478585 45.907922 46.428997 45.992099 44.626109 42.590719 40.289544 38.054128 36.027288 34.116886 32.115073 30.176122 29.032639 29.016962 29.567396 30.235368 31.037531 32.078881 33.376664 34.873814 36.448814 37.893623 38.903173 39.136938 38.359800 36.570008 34.039832 31.257914 28.774123 27.016995 26.168217 26.110724 26.472216 26.807757 26.900649 27.030355 27.960996 30.538817 35.143596 41.429970 48.121363 52.898061 53.942690 50.878076 44.652086 37.143814 29.774997 78.269686 77.401637 76.687521 76.327788 76.655998 78.081845 80.835991 84.377678 86.771558 85.468465 79.364181 69.091135 57.075130 46.162250 37.834137 32.314915 29.250680 28.119636 28.408801 29.6921