# vtk DataFile Version 3.0
vtk output
ASCII
DATASET STRUCTURED_POINTS
DIMENSIONS 50 50 50
SPACING 0.039456 0.038228 0.040078
ORIGIN -0.972881 -0.923284 -0.989129
POINT_DATA 125000
SCALARS RTData float
LOOKUP_TABLE default
-0.971148 -0.973642 -0.975844 -0.977758 -0.979386 -0.980736 -0.981818 -0.982644 -0.983230 -0.983592 -0.983750 -0.983726 -0.983542 -0.983221 -0.982788 -0.982268 -0.981685 -0.981065 -0.980429 -0.979801 -0.979200 -0.978644 -0.978148 -0.977723 -0.977377 -0.977114 -0.976935 -0.976834 -0.976803 -0.976830 -0.976897 -0.976984 -0.977068 -0.977121 -0.977116 -0.977022 -0.976810 -0.976448 -0.975908 -0.975160 -0.974178 -0.972939 -0.971421 -0.969607 -0.967482 -0.965036 -0.962263 -0.959160 -0.955727 -0.951969 -0.972582 -0.975065 -0.977259 -0.979165 -0.980788 -0.982135 -0.983215 -0.984042 -0.984629 -0.984993 -0.985155 -0.985134 -0.984954 -0.984638 -0.984211 -0.983697 -0.983123 -0.982512 -0.981888 -0.981274 -0.980691 -0.980157 -0.979688 -0.979295 -0.978988 -0.978771 -0.978643 -0.978601 -0.978635 -0.978733 -0.978877 -0.979045 -0.979213 -0.979353 -0.979436 -0.979430 -0.979305 -0.979028 -0.978568 -0.977896 -0.976985 -0.975809 -0.974348 -0.972583 -0.970500 -0.968088 -0.965341 -0.962257 -0.958835 -0.955081 -0.973727 -0.976197 -0.978380 -0.980280 -0.981899 -0.983244 -0.984326 -0.985156 -0.985748 -0.986120 -0.986290 -0.986279 -0.986109 -0.985804 -0.985389 -0.984887 -0.984325 -0.983728 -0.983120 -0.982525 -0.981962 -0.981453 -0.981012 -0.980653 -0.980385 -0.980213 -0.980137 -0.980152 -0.980250 -0.980418 -0.980636 -0.980883 -0.981133 -0.981357 -0.981526 -0.981606 -0.981564 -0.981368 -0.980986 -0.980387 -0.979543 -0.978429 -0.977023 -0.975306 -0.973263 -0.970885 -0.968164 -0.965099 -0.961689 -0.957941 -0.974596 -0.977051 -0.979223 -0.981116 -0.982731 -0.984077 -0.985163 -0.986000 -0.986603 -0.986987 -0.987171 -0.987175 -0.987022 -0.986734 -0.986335 -0.985852 -0.985308 -0.984730 -0.984142 -0.983567 -0.983029 -0.982546 -0.982135 -0.981811 -0.981582 -0.981455 -0.981429 -0.981501 -0.981661 -0.981895 -0.982185 -0.982507 -0.982836 -0.983142 -0.983392 -0.983553 -0.983591 -0.983473 -0.983164 -0.982635 -0.981855 -0.980799 -0.979445 -0.977773 -0.975770 -0.973424 -0.970729 -0.967683 -0.964287 -0.960546 -0.975206 -0.977643 -0.979804 -0.981689 -0.983302 -0.984651 -0.985744 -0.986592 -0.987209 -0.987610 -0.987814 -0.987840 -0.987709 -0.987444 -0.987068 -0.986608 -0.986088 -0.985533 -0.984969 -0.984419 -0.983907 -0.983453 -0.983074 -0.982784 -0.982595 -0.982511 -0.982534 -0.982660 -0.982879 -0.983177 -0.983536 -0.983930 -0.984333 -0.984715 -0.985042 -0.985280 -0.985393 -0.985346 -0.985107 -0.984642 -0.983922 -0.982920 -0.981615 -0.979986 -0.978019 -0.975704 -0.973034 -0.970007 -0.966626 -0.962894 -0.975575 -0.977994 -0.980141 -0.982019 -0.983632 -0.984985 -0.986088 -0.986950 -0.987586 -0.988010 -0.988239 -0.988292 -0.988189 -0.987953 -0.987606 -0.987175 -0.986683 -0.986156 -0.985620 -0.985098 -0.984615 -0.984191 -0.983844 -0.983590 -0.983439 -0.983398 -0.983468 -0.983646 -0.983921 -0.984279 -0.984701 -0.985163 -0.985636 -0.986088 -0.986486 -0.986794 -0.986976 -0.986996 -0.986820 -0.986414 -0.985748 -0.984797 -0.983535 -0.981946 -0.980013 -0.977726 -0.975080 -0.972073 -0.968706 -0.964986 -0.975726 -0.978125 -0.980258 -0.982129 -0.983741 -0.985101 -0.986216 -0.987097 -0.987756 -0.988207 -0.988466 -0.988552 -0.988483 -0.988281 -0.987970 -0.987572 -0.987113 -0.986619 -0.986114 -0.985624 -0.985172 -0.984780 -0.984467 -0.984247 -0.984134 -0.984134 -0.984249 -0.984474 -0.984801 -0.985216 -0.985697 -0.986220 -0.986756 -0.987273 -0.987735 -0.988107 -0.988351 -0.988431 -0.988311 -0.987957 -0.987340 -0.986433 -0.985211 -0.983656 -0.981754 -0.979494 -0.976870 -0.973881 -0.970530 -0.966821 -0.975682 -0.978059 -0.980179 -0.982043 -0.983656 -0.985024 -0.986154 -0.987057 -0.987743 -0.988225 -0.988519 -0.988642 -0.988613 -0.988451 -0.988179 -0.987821 -0.987400 -0.986943 -0.986473 -0.986017 -0.985598 -0.985239 -0.984959 -0.984775 -0.984698 -0.984737 -0.984893 -0.985163 -0.985537 -0.986002 -0.986536 -0.987115 -0.987708 -0.988282 -0.988801 -0.989229 -0.989527 -0.989659 -0.989587 -0.989279 -0.988704 -0.987835 -0.986647 -0.985123 -0.983247 -0.981011 -0.978408 -0.975436 -0.972099 -0.968404 -0.975470 -0.977825 -0.979930 -0.981787 -0.983402 -0.984780 -0.985927 -0.986854 -0.987570 -0.988088 -0.988421 -0.988587 -0.988601 -0.988484 -0.988257 -0.987943 -0.987564 -0.987147 -0.986716 -0.986297 -0.985913 -0.985588 -0.985342 -0.985191 -0.985149 -0.985224 -0.985418 -0.985728 -0.986146 -0.986655 -0.987236 -0.987863 -0.988504 -0.989128 -0.989696 -0.990171 -0.990515 -0.990690 -0.990660 -0.990389 -0.989849 -0.989010 -0.987851 -0.986352 -0.984499 -0.982283 -0.979698 -0.976743 -0.973421 -0.969738 -0.975117 -0.977448 -0.979538 -0.981389 -0.983007 -0.984395 -0.985562 -0.986515 -0.987264 -0.987821 -0.988197 -0.988409 -0.988472 -0.988404 -0.988226 -0.987959 -0.987627 -0.987253 -0.986864 -0.986483 -0.986136 -0.985846 -0.985633 -0.985515 -0.985506 -0.985614 -0.985843 -0.986189 -0.986643 -0.987191 -0.987811 -0.988478 -0.989161 -0.989825 -0.990433 -0.990946 -0.991327 -0.991536 -0.991537 -0.991296 -0.990782 -0.989967 -0.988830 -0.987351 -0.985516 -0.983316 -0.980747 -0.977807 -0.974499 -0.970830 -0.974650 -0.976957 -0.979032 -0.980877 -0.982497 -0.983898 -0.985085 -0.986066 -0.986851 -0.987448 -0.987871 -0.988132 -0.988247 -0.988232 -0.988106 -0.987891 -0.987608 -0.987281 -0.986935 -0.986595 -0.986286 -0.986031 -0.985851 -0.985765 -0.985787 -0.985925 -0.986183 -0.986560 -0.987045 -0.987625 -0.988277 -0.988976 -0.989690 -0.990385 -0.991023 -0.991566 -0.991973 -0.992207 -0.992230 -0.992009 -0.991513 -0.990716 -0.989593 -0.988128 -0.986306 -0.984120 -0.981563 -0.978636 -0.975342 -0.971687 -0.974096 -0.976380 -0.978439 -0.980279 -0.981902 -0.983315 -0.984523 -0.985534 -0.986355 -0.986996 -0.987467 -0.987780 -0.987949 -0.987989 -0.987919 -0.987758 -0.987527 -0.987249 -0.986949 -0.986651 -0.986380 -0.986161 -0.986013 -0.985957 -0.986006 -0.986171 -0.986455 -0.986857 -0.987367 -0.987971 -0.988647 -0.989369 -0.990106 -0.990822 -0.991480 -0.992041 -0.992465 -0.992713 -0.992749 -0.992539 -0.992053 -0.991264 -0.990150 -0.988692 -0.986879 -0.984701 -0.982155 -0.979239 -0.975957 -0.972317 -0.973483 -0.975743 -0.977788 -0.979621 -0.981248 -0.982673 -0.983903 -0.984944 -0.985802 -0.986487 -0.987007 -0.987374 -0.987598 -0.987696 -0.987683 -0.987578 -0.987401 -0.987173 -0.986920 -0.986666 -0.986434 -0.986249 -0.986133 -0.986105 -0.986180 -0.986367 -0.986672 -0.987093 -0.987621 -0.988242 -0.988934 -0.989670 -0.990420 -0.991147 -0.991815 -0.992383 -0.992813 -0.993065 -0.993104 -0.992896 -0.992411 -0.991623 -0.990509 -0.989054 -0.987244 -0.985071 -0.982532 -0.979625 -0.976355 -0.972729 -0.972837 -0.975074 -0.977103 -0.978931 -0.980560 -0.981998 -0.983249 -0.984319 -0.985215 -0.985944 -0.986514 -0.986934 -0.987215 -0.987371 -0.987417 -0.987368 -0.987246 -0.987070 -0.986865 -0.986654 -0.986461 -0.986311 -0.986225 -0.986222 -0.986319 -0.986526 -0.986847 -0.987281 -0.987820 -0.988450 -0.989148 -0.989890 -0.990642 -0.991371 -0.992037 -0.992602 -0.993027 -0.993273 -0.993305 -0.993089 -0.992596 -0.991801 -0.990682 -0.989222 -0.987410 -0.985239 -0.982703 -0.979804 -0.976544 -0.972932 -0.972182 -0.974395 -0.976410 -0.978231 -0.979864 -0.981313 -0.982585 -0.983683 -0.984616 -0.985388 -0.986006 -0.986479 -0.986817 -0.987031 -0.987134 -0.987143 -0.987076 -0.986952 -0.986794 -0.986626 -0.986472 -0.986355 -0.986297 -0.986319 -0.986434 -0.986656 -0.986987 -0.987429 -0.987972 -0.988603 -0.989300 -0.990037 -0.990782 -0.991501 -0.992155 -0.992706 -0.993116 -0.993345 -0.993360 -0.993127 -0.992618 -0.991808 -0.990676 -0.989207 -0.987388 -0.985214 -0.982679 -0.979785 -0.976536 -0.972937 -0.971538 -0.973730 -0.975731 -0.977546 -0.979181 -0.980640 -0.981931 -0.983057 -0.984023 -0.984837 -0.985502 -0.986027 -0.986419 -0.986690 -0.986850 -0.986915 -0.986902 -0.986829 -0.986719 -0.986593 -0.986476 -0.986391 -0.986359 -0.986401 -0.986533 -0.986764 -0.987102 -0.987544 -0.988085 -0.988708 -0.989395 -0.990118 -0.990846 -0.991544 -0.992176 -0.992703 -0.993087 -0.993290 -0.993278 -0.993019 -0.992486 -0.991653 -0.990502 -0.989018 -0.987188 -0.985007 -0.982471 -0.979580 -0.976339 -0.972753 -0.970926 -0.973098 -0.975085 -0.976894 -0.978530 -0.979999 -0.981306 -0.982457 -0.983456 -0.984308 -0.985018 -0.985591 -0.986036 -0.986361 -0.986576 -0.986695 -0.986734 -0.986711 -0.986646 -0.986561 -0.986479 -0.986424 -0.986416 -0.986476 -0.986619 -0.986856 -0.987194 -0.987632 -0.988162 -0.988771 -0.989438 -0.990138 -0.990839 -0.991508 -0.992107 -0.992599 -0.992947 -0.993114 -0.993066 -0.992773 -0.992207 -0.991345 -0.990169 -0.988664 -0.986819 -0.984628 -0.982088 -0.979199 -0.975965 -0.972392 -0.970362 -0.972515 -0.974489 -0.976292 -0.977928 -0.979405 -0.980728 -0.981901 -0.982929 -0.983816 -0.984567 -0.985185 -0.985679 -0.986054 -0.986321 -0.986491 -0.986580 -0.986603 -0.986581 -0.986535 -0.986486 -0.986458 -0.986471 -0.986545 -0.986695 -0.986934 -0.987267 -0.987693 -0.988207 -0.988793 -0.989433 -0.990100 -0.990765 -0.991394 -0.991951 -0.992399 -0.992701 -0.992822 -0.992730 -0.992395 -0.991789 -0.990892 -0.989686 -0.988155 -0.986291 -0.984087 -0.981540 -0.978651 -0.975423 -0.971863 -0.969858 -0.971995 -0.973958 -0.975754 -0.977391 -0.978874 -0.980209 -0.981402 -0.982455 -0.983373 -0.984160 -0.984820 -0.985357 -0.985779 -0.986093 -0.986311 -0.986445 -0.986512 -0.986529 -0.986518 -0.986499 -0.986494 -0.986524 -0.986609 -0.986763 -0.986998 -0.987321 -0.987730 -0.988219 -0.988775 -0.989379 -0.990006 -0.990626 -0.991206 -0.991711 -0.992105 -0.992354 -0.992421 -0.992277 -0.991892 -0.991241 -0.990302 -0.989060 -0.987500 -0.985613 -0.983393 -0.980838 -0.977948 -0.974725 -0.971176 -0.969424 -0.971548 -0.973501 -0.975292 -0.976928 -0.978416 -0.979762 -0.980970 -0.982045 -0.982991 -0.983809 -0.984504 -0.985080 -0.985542 -0.985899 -0.986158 -0.986334 -0.986439 -0.986492 -0.986512 -0.986519 -0.986534 -0.986577 -0.986668 -0.986821 -0.987048 -0.987354 -0.987740 -0.988198 -0.988717 -0.989278 -0.989855 -0.990422 -0.990944 -0.991389 -0.991722 -0.991908 -0.991914 -0.991711 -0.991270 -0.990567 -0.989583 -0.988300 -0.986707 -0.984794 -0.982556 -0.979991 -0.977098 -0.973880 -0.970342 -0.969068 -0.971181 -0.973127 -0.974914 -0.976549 -0.978041 -0.979395 -0.980616 -0.981709 -0.982676 -0.983520 -0.984245 -0.984854 -0.985351 -0.985744 -0.986039 -0.986250 -0.986389 -0.986472 -0.986518 -0.986546 -0.986576 -0.986628 -0.986720 -0.986867 -0.987080 -0.987365 -0.987721 -0.988143 -0.988617 -0.989127 -0.989648 -0.990152 -0.990610 -0.990987 -0.991250 -0.991367 -0.991306 -0.991037 -0.990534 -0.989775 -0.988740 -0.987414 -0.985784 -0.983843 -0.981585 -0.979008 -0.976110 -0.972896 -0.969369 -0.968792 -0.970899 -0.972840 -0.974624 -0.976260 -0.977754 -0.979115 -0.980346 -0.981452 -0.982436 -0.983301 -0.984049 -0.984684 -0.985210 -0.985632 -0.985957 -0.986196 -0.986362 -0.986469 -0.986536 -0.986579 -0.986619 -0.986675 -0.986764 -0.986899 -0.987093 -0.987350 -0.987671 -0.988049 -0.988472 -0.988924 -0.989382 -0.989818 -0.990203 -0.990505 -0.990692 -0.990733 -0.990598 -0.990258 -0.989689 -0.988869 -0.987780 -0.986408 -0.984740 -0.982768 -0.980489 -0.977897 -0.974995 -0.971783 -0.968266 -0.968598 -0.970703 -0.972643 -0.974427 -0.976063 -0.977560 -0.978925 -0.980163 -0.981279 -0.982276 -0.983156 -0.983922 -0.984576 -0.985123 -0.985567 -0.985914 -0.986175 -0.986361 -0.986486 -0.986566 -0.986619 -0.986663 -0.986716 -0.986796 -0.986914 -0.987083 -0.987307 -0.987585 -0.987914 -0.988280 -0.988668 -0.989055 -0.989416 -0.989722 -0.989943 -0.990049 -0.990009 -0.989795 -0.989380 -0.988741 -0.987857 -0.986711 -0.985289 -0.983580 -0.981577 -0.979274 -0.976668 -0.973759 -0.970549 -0.967041 -0.968482 -0.970592 -0.972535 -0.974321 -0.975960 -0.977460 -0.978829 -0.980072 -0.981194 -0.982199 -0.983088 -0.983866 -0.984533 -0.985094 -0.985552 -0.985914 -0.986189 -0.986387 -0.986522 -0.986609 -0.986664 -0.986706 -0.986751 -0.986814 -0.986910 -0.987047 -0.987232 -0.987463 -0.987735 -0.988039 -0.988356 -0.988667 -0.988947 -0.989168 -0.989303 -0.989322 -0.989197 -0.988900 -0.988406 -0.987694 -0.986743 -0.985537 -0.984064 -0.982313 -0.980276 -0.977948 -0.975327 -0.972411 -0.969202 -0.965702 -0.968441 -0.970561 -0.972511 -0.974304 -0.975948 -0.977452 -0.978825 -0.980072 -0.981198 -0.982206 -0.983101 -0.983884 -0.984557 -0.985125 -0.985590 -0.985959 -0.986239 -0.986442 -0.986579 -0.986665 -0.986716 -0.986748 -0.986777 -0.986818 -0.986884 -0.986984 -0.987123 -0.987300 -0.987511 -0.987745 -0.987986 -0.988215 -0.988409 -0.988541 -0.988585 -0.988514 -0.988299 -0.987915 -0.987340 -0.986551 -0.985532 -0.984265 -0.982739 -0.980944 -0.978872 -0.976519 -0.973880 -0.970956 -0.967746 -0.964254 -0.968467 -0.970603 -0.972567 -0.974371 -0.976024 -0.977535 -0.978912 -0.980162 -0.981290 -0.982299 -0.983195 -0.983978 -0.984651 -0.985218 -0.985682 -0.986050 -0.986329 -0.986528 -0.986659 -0.986736 -0.986774 -0.986788 -0.986794 -0.986806 -0.986836 -0.986892 -0.986979 -0.987096 -0.987240 -0.987399 -0.987558 -0.987701 -0.987803 -0.987842 -0.987791 -0.987624 -0.987317 -0.986845 -0.986185 -0.985319 -0.984228 -0.982899 -0.981319 -0.979479 -0.977371 -0.974991 -0.972334 -0.969401 -0.966189 -0.962702 -0.968551 -0.970710 -0.972695 -0.974515 -0.976181 -0.977702 -0.979085 -0.980338 -0.981467 -0.982476 -0.983368 -0.984147 -0.984814 -0.985374 -0.985831 -0.986190 -0.986458 -0.986645 -0.986762 -0.986822 -0.986839 -0.986828 -0.986804 -0.986779 -0.986765 -0.986770 -0.986799 -0.986850 -0.986920 -0.986999 -0.987072 -0.987123 -0.987130 -0.987071 -0.986921 -0.986657 -0.986255 -0.985691 -0.984946 -0.984000 -0.982837 -0.981444 -0.979809 -0.977923 -0.975778 -0.973370 -0.970694 -0.967749 -0.964535 -0.961051 -0.968680 -0.970872 -0.972884 -0.974727 -0.976411 -0.977945 -0.979338 -0.980596 -0.981726 -0.982733 -0.983619 -0.984389 -0.985046 -0.985594 -0.986036 -0.986378 -0.986629 -0.986795 -0.986890 -0.986924 -0.986912 -0.986868 -0.986805 -0.986736 -0.986671 -0.986619 -0.986582 -0.986562 -0.986552 -0.986545 -0.986527 -0.986481 -0.986389 -0.986229 -0.985978 -0.985614 -0.985114 -0.984457 -0.983625 -0.982598 -0.981362 -0.979904 -0.978213 -0.976279 -0.974096 -0.971659 -0.968963 -0.966005 -0.962786 -0.959305 -0.968842 -0.971074 -0.973122 -0.974995 -0.976704 -0.978256 -0.979662 -0.980928 -0.982060 -0.983063 -0.983943 -0.984702 -0.985344 -0.985874 -0.986295 -0.986615 -0.986840 -0.986979 -0.987042 -0.987043 -0.986994 -0.986908 -0.986799 -0.986678 -0.986555 -0.986438 -0.986330 -0.986230 -0.986136 -0.986038 -0.985923 -0.985778 -0.985583 -0.985318 -0.984963 -0.984497 -0.983898 -0.983146 -0.982225 -0.981116 -0.979806 -0.978282 -0.976534 -0.974552 -0.972330 -0.969861 -0.967143 -0.964171 -0.960945 -0.957464 -0.969021 -0.971303 -0.973395 -0.975305 -0.977045 -0.978622 -0.980045 -0.981322 -0.982458 -0.983460 -0.984332 -0.985078 -0.985702 -0.986210 -0.986606 -0.986897 -0.987089 -0.987193 -0.987219 -0.987178 -0.987083 -0.986948 -0.986784 -0.986604 -0.986415 -0.986226 -0.986040 -0.985857 -0.985672 -0.985477 -0.985263 -0.985013 -0.984711 -0.984340 -0.983878 -0.983307 -0.982607 -0.981760 -0.980748 -0.979557 -0.978171 -0.976581 -0.974774 -0.972742 -0.970479 -0.967979 -0.965236 -0.962248 -0.959013 -0.955530 -0.969200 -0.971541 -0.973685 -0.975642 -0.977420 -0.979028 -0.980474 -0.981766 -0.982910 -0.983911 -0.984776 -0.985508 -0.986113 -0.986596 -0.986962 -0.987219 -0.987373 -0.987435 -0.987416 -0.987326 -0.987179 -0.986986 -0.986760 -0.986513 -0.986252 -0.985984 -0.985714 -0.985440 -0.985159 -0.984864 -0.984544 -0.984186 -0.983775 -0.983294 -0.982724 -0.982046 -0.981244 -0.980299 -0.979197 -0.977921 -0.976459 -0.974800 -0.972934 -0.970852 -0.968546 -0.966012 -0.963243 -0.960237 -0.956990 -0.953502 -0.969362 -0.971771 -0.973976 -0.975987 -0.977812 -0.979458 -0.980933 -0.982245 -0.983400 -0.984404 -0.985263 -0.985981 -0.986566 -0.987021 -0.987355 -0.987573 -0.987684 -0.987699 -0.987628 -0.987483 -0.987275 -0.987019 -0.986724 -0.986402 -0.986062 -0.985709 -0.985348 -0.984978 -0.984596 -0.984195 -0.983767 -0.983298 -0.982775 -0.982181 -0.981500 -0.980714 -0.979808 -0.978765 -0.977570 -0.976209 -0.974670 -0.972942 -0.971014 -0.968879 -0.966530 -0.963959 -0.961162 -0.958135 -0.954874 -0.951378 -0.969487 -0.971972 -0.974248 -0.976321 -0.978200 -0.979891 -0.981402 -0.982739 -0.983910 -0.984920 -0.985776 -0.986482 -0.987046 -0.987473 -0.987771 -0.987948 -0.988013 -0.987976 -0.987848 -0.987641 -0.987367 -0.987040 -0.986669 -0.986267 -0.985841 -0.985397 -0.984939 -0.984468 -0.983980 -0.983470 -0.982929 -0.982346 -0.981707 -0.980999 -0.980205 -0.979310 -0.978298 -0.977156 -0.975867 -0.974420 -0.972802 -0.971003 -0.969013 -0.966824 -0.964428 -0.961819 -0.958991 -0.955941 -0.952663 -0.949157 -0.969553 -0.972123 -0.974477 -0.976621 -0.978562 -0.980305 -0.981859 -0.983228 -0.984420 -0.985440 -0.986295 -0.986992 -0.987536 -0.987935 -0.988197 -0.988330 -0.988345 -0.988252 -0.988063 -0.987789 -0.987444 -0.987040 -0.986589 -0.986100 -0.985582 -0.985042 -0.984483 -0.983906 -0.983308 -0.982685 -0.982027 -0.981327 -0.980571 -0.979745 -0.978837 -0.977831 -0.976713 -0.975469 -0.974086 -0.972551 -0.970853 -0.968982 -0.966927 -0.964682 -0.962238 -0.959588 -0.956727 -0.953651 -0.950354 -0.946835 -0.969538 -0.972201 -0.974641 -0.976864 -0.978874 -0.980678 -0.982280 -0.983687 -0.984905 -0.985941 -0.986799 -0.987489 -0.988015 -0.988387 -0.988612 -0.988701 -0.988664 -0.988513 -0.988259 -0.987915 -0.987494 -0.987009 -0.986472 -0.985892 -0.985278 -0.984636 -0.983972 -0.983284 -0.982573 -0.981832 -0.981056 -0.980236 -0.979360 -0.978416 -0.977392 -0.976274 -0.975048 -0.973702 -0.972222 -0.970599 -0.968819 -0.966874 -0.964754 -0.962450 -0.959956 -0.957263 -0.954367 -0.951261 -0.947943 -0.944408 -0.969420 -0.972182 -0.974716 -0.977024 -0.979111 -0.980981 -0.982639 -0.984090 -0.985340 -0.986395 -0.987262 -0.987947 -0.988458 -0.988804 -0.988994 -0.989039 -0.988950 -0.988738 -0.988418 -0.988001 -0.987502 -0.986932 -0.986305 -0.985629 -0.984915 -0.984169 -0.983395 -0.982594 -0.981766 -0.980906 -0.980009 -0.979067 -0.978069 -0.977006 -0.975864 -0.974632 -0.973298 -0.971848 -0.970272 -0.968558 -0.966696 -0.964675 -0.962487 -0.960124 -0.957576 -0.954839 -0.951904 -0.948768 -0.945425 -0.941871 -0.969176 -0.972043 -0.974675 -0.977075 -0.979244 -0.981187 -0.982907 -0.984408 -0.985695 -0.986775 -0.987654 -0.988339 -0.988839 -0.989162 -0.989318 -0.989320 -0.989178 -0.988907 -0.988519 -0.988028 -0.987447 -0.986791 -0.986071 -0.985298 -0.984481 -0.983627 -0.982740 -0.981824 -0.980877 -0.979896 -0.978876 -0.977811 -0.976691 -0.975507 -0.974247 -0.972901 -0.971457 -0.969903 -0.968229 -0.966424 -0.964477 -0.962379 -0.960122 -0.957696 -0.955094 -0.952309 -0.949334 -0.946164 -0.942794 -0.939220 -0.968781 -0.971757 -0.974493 -0.976989 -0.979246 -0.981267 -0.983054 -0.984610 -0.985940 -0.987050 -0.987946 -0.988636 -0.989127 -0.989430 -0.989556 -0.989516 -0.989324 -0.988993 -0.988537 -0.987972 -0.987310 -0.986566 -0.985752 -0.984879 -0.983958 -0.982994 -0.981995 -0.980961 -0.979894 -0.978790 -0.977647 -0.976458 -0.975215 -0.973909 -0.972531 -0.971070 -0.969516 -0.967858 -0.966085 -0.964188 -0.962156 -0.959980 -0.957651 -0.955162 -0.952503 -0.949669 -0.946651 -0.943445 -0.940046 -0.936449 -0.968211 -0.971300 -0.974142 -0.976739 -0.979088 -0.981191 -0.983049 -0.984665 -0.986043 -0.987188 -0.988105 -0.988803 -0.989291 -0.989578 -0.989676 -0.989598 -0.989358 -0.988969 -0.988448 -0.987808 -0.987066 -0.986234 -0.985326 -0.984354 -0.983328 -0.982255 -0.981141 -0.979990 -0.978802 -0.977577 -0.976310 -0.974997 -0.973631 -0.972204 -0.970708 -0.969132 -0.967468 -0.965705 -0.963833 -0.961842 -0.959724 -0.957469 -0.955068 -0.952514 -0.949797 -0.946911 -0.943849 -0.940606 -0.937175 -0.933553 -0.967445 -0.970646 -0.973598 -0.976296 -0.978740 -0.980929 -0.982862 -0.984542 -0.985972 -0.987155 -0.988099 -0.988810 -0.989298 -0.989573 -0.989648 -0.989535 -0.989250 -0.988807 -0.988222 -0.987511 -0.986689 -0.985772 -0.984771 -0.983701 -0.982570 -0.981389 -0.980162 -0.978894 -0.977587 -0.976240 -0.974850 -0.973415 -0.971927 -0.970380 -0.968766 -0.967076 -0.965302 -0.963434 -0.961463 -0.959380 -0.957175 -0.954840 -0.952366 -0.949745 -0.946969 -0.944030 -0.940923 -0.937640 -0.934176 -0.930528 -0.966458 -0.969773 -0.972833 -0.975635 -0.978175 -0.980451 -0.982462 -0.984209 -0.985693 -0.986919 -0.987893 -0.988622 -0.989114 -0.989382 -0.989438 -0.989295 -0.988970 -0.988476 -0.987832 -0.987053 -0.986155 -0.985154 -0.984063 -0.982897 -0.981665 -0.980376 -0.979039 -0.977656 -0.976231 -0.974765 -0.973255 -0.971698 -0.970090 -0.968424 -0.966694 -0.964891 -0.963009 -0.961037 -0.958967 -0.956791 -0.954500 -0.952084 -0.949537 -0.946848 -0.944012 -0.941020 -0.937865 -0.934542 -0.931045 -0.927368 -0.965231 -0.968657 -0.971824 -0.974729 -0.977365 -0.979729 -0.981819 -0.983634 -0.985176 -0.986449 -0.987456 -0.988206 -0.988709 -0.988974 -0.989015 -0.988847 -0.988486 -0.987947 -0.987247 -0.986405 -0.985435 -0.984355 -0.983178 -0.981919 -0.980589 -0.979197 -0.977752 -0.976258 -0.974718 -0.973135 -0.971507 -0.969832 -0.968106 -0.966324 -0.964480 -0.962567 -0.960577 -0.958503 -0.956336 -0.954068 -0.951690 -0.949195 -0.946573 -0.943818 -0.940921 -0.937875 -0.934672 -0.931308 -0.927776 -0.924071 -0.963745 -0.967277 -0.970550 -0.973554 -0.976285 -0.978736 -0.980905 -0.982790 -0.984392 -0.985713 -0.986757 -0.987533 -0.988049 -0.988316 -0.988349 -0.988161 -0.987769 -0.987189 -0.986441 -0.985540 -0.984504 -0.983349 -0.982092 -0.980745 -0.979321 -0.977831 -0.976282 -0.974681 -0.973031 -0.971335 -0.969593 -0.967804 -0.965964 -0.964069 -0.962114 -0.960092 -0.957998 -0.955823 -0.953560 -0.951202 -0.948739 -0.946164 -0.943470 -0.940647 -0.937689 -0.934589 -0.931339 -0.927933 -0.924366 -0.920633 -0.961981 -0.965617 -0.968989 -0.972090 -0.974912 -0.977449 -0.979696 -0.981651 -0.983312 -0.984683 -0.985768 -0.986572 -0.987106 -0.987380 -0.987409 -0.987207 -0.986790 -0.986177 -0.985385 -0.984432 -0.983336 -0.982113 -0.980781 -0.979353 -0.977841 -0.976258 -0.974611 -0.972908 -0.971153 -0.969349 -0.967498 -0.965599 -0.963649 -0.961645 -0.959582 -0.957456 -0.955260 -0.952988 -0.950632 -0.948184 -0.945638 -0.942986 -0.940219 -0.937331 -0.934313 -0.931159 -0.927862 -0.924415 -0.920813 -0.917052 -0.959927 -0.963658 -0.967125 -0.970318 -0.973227 -0.975846 -0.978169 -0.980192 -0.981914 -0.983336 -0.984462 -0.985298 -0.985853 -0.986139 -0.986169 -0.985959 -0.985524 -0.984883 -0.984055 -0.983057 -0.981907 -0.980624 -0.979224 -0.977721 -0.976128 -0.974458 -0.972720 -0.970922 -0.969068 -0.967163 -0.965208 -0.963204 -0.961149 -0.959041 -0.956876 -0.954650 -0.952356 -0.949989 -0.947543 -0.945009 -0.942382 -0.939654 -0.936817 -0.933864 -0.930787 -0.927581 -0.924237 -0.920750 -0.917114 -0.913325 -0.957570 -0.961390 -0.964944 -0.968222 -0.971213 -0.973910 -0.976305 -0.978395 -0.980176 -0.981649 -0.982818 -0.983688 -0.984269 -0.984570 -0.984607 -0.984394 -0.983947 -0.983286 -0.982428 -0.981392 -0.980198 -0.978861 -0.977401 -0.975831 -0.974165 -0.972416 -0.970594 -0.968707 -0.966762 -0.964762 -0.962710 -0.960608 -0.958454 -0.956248 -0.953985 -0.951663 -0.949276 -0.946819 -0.944286 -0.941670 -0.938965 -0.936163 -0.933258 -0.930243 -0.927109 -0.923851 -0.920462 -0.916937 -0.913268 -0.909453 -0.954902 -0.958801 -0.962434 -0.965790 -0.968858 -0.971627 -0.974091 -0.976243 -0.978081 -0.979605 -0.980818 -0.981724 -0.982333 -0.982654 -0.982703 -0.982492 -0.982041 -0.981366 -0.980486 -0.979421 -0.978189 -0.976807 -0.975295 -0.973666 -0.971936 -0.970116 -0.968218 -0.966251 -0.964221 -0.962134 -0.959993 -0.957799 -0.955554 -0.953255 -0.950901 -0.948489 -0.946014 -0.943471 -0.940856 -0.938161 -0.935382 -0.932510 -0.929540 -0.926464 -0.923276 -0.919970 -0.916538 -0.912975 -0.909275 -0.905435 -0.951917 -0.955886 -0.959590 -0.963016 -0.966152 -0.968987 -0.971514 -0.973726 -0.975619 -0.977192 -0.978449 -0.979392 -0.980031 -0.980376 -0.980441 -0.980239 -0.979789 -0.979107 -0.978213 -0.977126 -0.975865 -0.974447 -0.972891 -0.971213 -0.969426 -0.967545 -0.965580 -0.963542 -0.961436 -0.959270 -0.957047 -0.954770 -0.952439 -0.950056 -0.947617 -0.945120 -0.942563 -0.939940 -0.937247 -0.934479 -0.931629 -0.928691 -0.925659 -0.922527 -0.919287 -0.915934 -0.912462 -0.908864 -0.905135 -0.901272 -0.948612 -0.952641 -0.956406 -0.959894 -0.963090 -0.965985 -0.968569 -0.970836 -0.972780 -0.974402 -0.975701 -0.976682 -0.977354 -0.977726 -0.977810 -0.977623 -0.977179 -0.976498 -0.975598 -0.974497 -0.973215 -0.971770 -0.970180 -0.968460 -0.966627 -0.964693 -0.962671 -0.960569 -0.958397 -0.956160 -0.953864 -0.951512 -0.949105 -0.946643 -0.944126 -0.941553 -0.938919 -0.936222 -0.933458 -0.930620 -0.927705 -0.924705 -0.921616 -0.918430 -0.915142 -0.911746 -0.908236 -0.904605 -0.900851 -0.896966 -0.944989 -0.949068 -0.952884 -0.956423 -0.959672 -0.962619 -0.965254 -0.967571 -0.969563 -0.971229 -0.972570 -0.973590 -0.974295 -0.974696 -0.974805 -0.974636 -0.974206 -0.973531 -0.972631 -0.971525 -0.970231 -0.968767 -0.967152 -0.965401 -0.963530 -0.961553 -0.959482 -0.957328 -0.955098 -0.952800 -0.950439 -0.948020 -0.945544 -0.943013 -0.940426 -0.937782 -0.935080 -0.932315 -0.929484 -0.926584 -0.923607 -0.920551 -0.917408 -0.914174 -0.910841 -0.907406 -0.903861 -0.900201 -0.896423 -0.892521 -0.936581 -0.938933 -0.941002 -0.942788 -0.944297 -0.945534 -0.946509 -0.947236 -0.947728 -0.948003 -0.948080 -0.947979 -0.947724 -0.947336 -0.946842 -0.946265 -0.945630 -0.944962 -0.944284 -0.943618 -0.942984 -0.942400 -0.941882 -0.941441 -0.941085 -0.940820 -0.940645 -0.940556 -0.940545 -0.940600 -0.940702 -0.940833 -0.940968 -0.941081 -0.941143 -0.941124 -0.940995 -0.940723 -0.940279 -0.939635 -0.938763 -0.937639 -0.936243 -0.934556 -0.932564 -0.930257 -0.927628 -0.924673 -0.921394 -0.917795 -0.937869 -0.940209 -0.942267 -0.944044 -0.945546 -0.946779 -0.947752 -0.948477 -0.948969 -0.949245 -0.949323 -0.949225 -0.948972 -0.948589 -0.948098 -0.947526 -0.946897 -0.946236 -0.945567 -0.944912 -0.944294 -0.943729 -0.943235 -0.942824 -0.942505 -0.942282 -0.942157 -0.942124 -0.942177 -0.942301 -0.942479 -0.942690 -0.942910 -0.943110 -0.943261 -0.943332 -0.943290 -0.943104 -0.942743 -0.942176 -0.941377 -0.940320 -0.938983 -0.937348 -0.935401 -0.933131 -0.930531 -0.927598 -0.924333 -0.920741 -0.938874 -0.941199 -0.943245 -0.945014 -0.946509 -0.947739 -0.948712 -0.949439 -0.949936 -0.950218 -0.950303 -0.950213 -0.949969 -0.949595 -0.949114 -0.948552 -0.947933 -0.947284 -0.946628 -0.945988 -0.945388 -0.944845 -0.944376 -0.943996 -0.943713 -0.943533 -0.943456 -0.943480 -0.943594 -0.943786 -0.944038 -0.944327 -0.944628 -0.944913 -0.945150 -0.945307 -0.945350 -0.945247 -0.944966 -0.944474 -0.943745 -0.942752 -0.941473 -0.939889 -0.937986 -0.935752 -0.933181 -0.930271 -0.927023 -0.923440 -0.939609 -0.941917 -0.943949 -0.945709 -0.947200 -0.948429 -0.949404 -0.950137 -0.950642 -0.950935 -0.951034 -0.950958 -0.950728 -0.950369 -0.949904 -0.949357 -0.948754 -0.948121 -0.947482 -0.946861 -0.946281 -0.945761 -0.945320 -0.944971 -0.944724 -0.944586 -0.944557 -0.944634 -0.944808 -0.945066 -0.945388 -0.945753 -0.946132 -0.946498 -0.946817 -0.947056 -0.947181 -0.947157 -0.946951 -0.946531 -0.945868 -0.944936 -0.943712 -0.942177 -0.940316 -0.938118 -0.935577 -0.932690 -0.929458 -0.925888 -0.940091 -0.942379 -0.944397 -0.946148 -0.947635 -0.948864 -0.949845 -0.950588 -0.951106 -0.951415 -0.951532 -0.951476 -0.951267 -0.950929 -0.950485 -0.949959 -0.949378 -0.948765 -0.948147 -0.947548 -0.946991 -0.946496 -0.946083 -0.945765 -0.945554 -0.945457 -0.945474 -0.945603 -0.945834 -0.946154 -0.946543 -0.946978 -0.947432 -0.947874 -0.948271 -0.948587 -0.948788 -0.948838 -0.948703 -0.948350 -0.947750 -0.946875 -0.945703 -0.944214 -0.942393 -0.940229 -0.937717 -0.934853 -0.931640 -0.928082 -0.940338 -0.942605 -0.944608 -0.946350 -0.947833 -0.949066 -0.950055 -0.950811 -0.951347 -0.951677 -0.951817 -0.951787 -0.951605 -0.951294 -0.950877 -0.950378 -0.949822 -0.949235 -0.948641 -0.948067 -0.947535 -0.947068 -0.946683 -0.946397 -0.946221 -0.946163 -0.946224 -0.946402 -0.946686 -0.947064 -0.947516 -0.948018 -0.948540 -0.949053 -0.949521 -0.949909 -0.950180 -0.950299 -0.950229 -0.949937 -0.949394 -0.948572 -0.947447 -0.946001 -0.944218 -0.942087 -0.939602 -0.936762 -0.933568 -0.930025 -0.940374 -0.942618 -0.944605 -0.946337 -0.947819 -0.949056 -0.950056 -0.950829 -0.951387 -0.951742 -0.951912 -0.951912 -0.951763 -0.951485 -0.951100 -0.950633 -0.950108 -0.949550 -0.948985 -0.948439 -0.947935 -0.947495 -0.947139 -0.946885 -0.946743 -0.946722 -0.946825 -0.947047 -0.947382 -0.947813 -0.948322 -0.948884 -0.949470 -0.950047 -0.950580 -0.951032 -0.951367 -0.951546 -0.951535 -0.951299 -0.950807 -0.950032 -0.948951 -0.947543 -0.945794 -0.943694 -0.941236 -0.938418 -0.935243 -0.931717 -0.940222 -0.942441 -0.944412 -0.946135 -0.947616 -0.948860 -0.949873 -0.950666 -0.951249 -0.951635 -0.951838 -0.951874 -0.951762 -0.951523 -0.951176 -0.950745 -0.950256 -0.949732 -0.949199 -0.948683 -0.948208 -0.947798 -0.947472 -0.947248 -0.947139 -0.947153 -0.947293 -0.947558 -0.947937 -0.948417 -0.948977 -0.949593 -0.950234 -0.950868 -0.951459 -0.951968 -0.952359 -0.952592 -0.952631 -0.952443 -0.951996 -0.951263 -0.950219 -0.948846 -0.947128 -0.945055 -0.942622 -0.939826 -0.936671 -0.933162 -0.939908 -0.942102 -0.944056 -0.945771 -0.947251 -0.948502 -0.949531 -0.950347 -0.950958 -0.951378 -0.951619 -0.951696 -0.951627 -0.951430 -0.951126 -0.950737 -0.950287 -0.949801 -0.949303 -0.948821 -0.948377 -0.947997 -0.947701 -0.947507 -0.947428 -0.947475 -0.947650 -0.947951 -0.948370 -0.948892 -0.949497 -0.950159 -0.950849 -0.951532 -0.952172 -0.952729 -0.953167 -0.953445 -0.953528 -0.953380 -0.952971 -0.952272 -0.951260 -0.949916 -0.948225 -0.946177 -0.943766 -0.940992 -0.937856 -0.934365 -0.939460 -0.941629 -0.943564 -0.945271 -0.946751 -0.948011 -0.949058 -0.949898 -0.950541 -0.950998 -0.951280 -0.951403 -0.951380 -0.951231 -0.950974 -0.950631 -0.950224 -0.949778 -0.949319 -0.948872 -0.948461 -0.948112 -0.947845 -0.947680 -0.947630 -0.947706 -0.947911 -0.94824