# vtk DataFile Version 3.0
vtk output
ASCII
DATASET STRUCTURED_POINTS
DIMENSIONS 70 70 70
SPACING 0.617478 1.036000 0.144928
ORIGIN 10.688000 3.646000 1.000000
POINT_DATA 343000
SCALARS RTData float
LOOKUP_TABLE default
4.342539 4.448503 4.550097 4.646613 4.737261 4.821164 4.897358 4.964791 5.022334 5.068785 5.102889 5.123347 5.128825 5.117955 5.089306 5.041328 4.972261 4.880022 4.762120 4.615642 4.437428 4.224511 3.974906 3.688713 3.369371 3.024679 2.667027 2.312454 1.978714 1.683371 1.443067 1.273955 1.191182 1.204303 1.308831 1.480958 1.683275 1.879098 2.044856 2.175232 2.285838 2.418849 2.638204 2.985012 3.455709 4.038643 4.682875 5.315749 5.889271 6.383373 6.794024 7.124894 7.383395 7.578972 7.722309 7.824821 7.898183 7.953862 8.002772 8.055241 8.121201 8.210005 8.329288 8.483170 8.670869 8.886544 9.120319 9.359966 9.592669 9.806483 4.543518 4.652842 4.757535 4.856785 4.949674 5.035172 5.112137 5.179314 5.235353 5.278824 5.308250 5.322148 5.319069 5.297628 5.256494 5.194318 5.109567 5.000252 4.863599 4.695747 4.491672 4.245527 3.951634 3.606279 3.210263 2.771683 2.307526 1.842170 1.402341 1.011431 0.688187 0.451917 0.328723 0.345241 0.503702 0.761286 1.044167 1.289505 1.474253 1.611419 1.734794 1.891279 2.134156 2.500625 2.993313 3.584628 4.219189 4.835879 5.392760 5.869503 6.259943 6.565918 6.794009 6.954036 7.058264 7.120702 7.156145 7.178848 7.201282 7.234202 7.289014 7.380065 7.522347 7.725275 7.988169 8.300278 8.643867 8.998107 9.342439 9.658922 4.730861 4.842848 4.949865 5.050970 5.145087 5.230993 5.307315 5.372528 5.424976 5.462901 5.484504 5.488026 5.471856 5.434641 5.375370 5.293357 5.188047 5.058564 4.903002 4.717592 4.496042 4.229441 3.907090 3.518631 3.058008 2.529845 1.956443 1.378251 0.841602 0.381298 0.014818 -0.243610 -0.360279 -0.288386 -0.024658 0.354540 0.720658 0.979487 1.131548 1.236591 1.357965 1.543362 1.824870 2.215421 2.703765 3.256773 3.829722 4.379811 4.875219 5.296604 5.634666 5.887513 6.059135 6.158688 6.199978 6.200629 6.180490 6.158648 6.148719 6.156084 6.186779 6.263782 6.422372 6.685724 7.052133 7.499482 7.994998 8.503576 8.993349 9.438745 4.902642 5.016453 5.124867 5.226794 5.320971 5.405941 5.480041 5.541400 5.587951 5.617474 5.627678 5.616339 5.581499 5.521728 5.436399 5.325889 5.191513 5.034958 4.857066 4.656162 4.426548 4.157868 3.835648 3.442634 2.960943 2.380076 1.718978 1.042870 0.435704 -0.044469 -0.378269 -0.566110 -0.590850 -0.415476 -0.050184 0.395811 0.759652 0.947109 0.999181 1.026766 1.109997 1.284349 1.566599 1.951653 2.410735 2.906639 3.404299 3.874101 4.292588 4.642186 4.910825 5.092189 5.186646 5.202165 5.154401 5.065587 4.962331 4.871408 4.810389 4.776282 4.761974 4.806295 4.984441 5.339892 5.861106 6.501707 7.203729 7.911788 8.580209 9.175848 5.057303 5.172013 5.280830 5.382503 5.475563 5.558292 5.628702 5.684515 5.723172 5.741866 5.737642 5.707577 5.649076 5.560324 5.440877 5.292307 5.118579 4.925484 4.718448 4.499343 4.264488 4.004779 3.706694 3.352807 2.917445 2.362652 1.678974 0.954164 0.321380 -0.136340 -0.394495 -0.471129 -0.387823 -0.152968 0.200502 0.573906 0.839496 0.939959 0.930295 0.915545 0.965056 1.103360 1.343734 1.677592 2.070984 2.487489 2.899237 3.285162 3.626875 3.906291 4.106024 4.212426 4.219999 4.134898 3.975139 3.767138 3.541374 3.327956 3.148069 3.006650 2.914656 2.939632 3.188409 3.713002 4.473007 5.381034 6.346772 7.292758 8.160311 8.911679 5.193726 5.308396 5.416638 5.517043 5.607941 5.687361 5.752991 5.802153 5.831783 5.838467 5.818524 5.768217 5.684119 5.563746 5.406547 5.215298 4.997508 4.765040 4.528616 4.288958 4.038150 3.770032 3.476929 3.142935 2.742614 2.237974 1.615433 0.956337 0.394212 0.014393 -0.164948 -0.169452 -0.039270 0.184639 0.452059 0.696069 0.853403 0.904052 0.884845 0.860289 0.883779 0.982532 1.161932 1.408296 1.696774 2.004589 2.316249 2.619508 2.898266 3.128675 3.281591 3.329884 3.258057 3.070222 2.789784 2.449172 2.081337 1.719499 1.390781 1.115554 0.932347 0.939008 1.284803 2.033402 3.085445 4.295505 5.544264 6.733639 7.790667 8.675558 5.311268 5.424996 5.531763 5.630026 5.717944 5.793334 5.853625 5.895811 5.916434 5.911594 5.877043 5.808390 5.701522 5.553355 5.363154 5.134696 4.879117 4.615522 4.360593 4.105989 3.826238 3.519689 3.188518 2.814842 2.382304 1.890281 1.361605 0.852627 0.435456 0.162330 0.049950 0.083212 0.226021 0.430357 0.641542 0.805340 0.887068 0.892018 0.856044 0.821459 0.821141 0.870779 0.968795 1.103380 1.263040 1.444626 1.653309 1.892276 2.146497 2.376638 2.531964 2.564231 2.441245 2.163600 1.765786 1.297310 0.805272 0.331820 -0.088264 -0.422288 -0.616739 -0.568972 -0.139310 0.733468 1.960692 3.390663 4.872901 6.266387 7.467971 8.435324 5.409747 5.521703 5.626207 5.721613 5.805966 5.876944 5.931809 5.967369 5.979948 5.965408 5.919241 5.836792 5.713687 5.546614 5.334640 5.081306 4.797269 4.500985 4.210647 3.927077 3.635226 3.321649 2.958008 2.511693 1.997276 1.472722 0.994195 0.598111 0.307125 0.137491 0.095747 0.163821 0.312339 0.503592 0.683858 0.799054 0.821262 0.775700 0.711138 0.663303 0.647745 0.660817 0.686120 0.707902 0.725555 0.761396 0.855456 1.043132 1.320312 1.627711 1.877682 1.979065 1.865940 1.535884 1.045796 0.473531 -0.111840 -0.658430 -1.128362 -1.483268 -1.665638 -1.590161 -1.160131 -0.312710 0.940429 2.499328 4.177734 5.746440 7.042506 8.035759 5.489412 5.598848 5.700404 5.792380 5.872756 5.939151 5.988770 6.018368 6.024237 6.002230 5.947865 5.856549 5.723987 5.546862 5.323887 5.057248 4.754202 4.427768 4.094797 3.771086 3.463194 3.147280 2.750372 2.213256 1.589402 1.005201 0.546452 0.233132 0.051520 -0.017353 0.010597 0.110611 0.253787 0.406061 0.524170 0.573043 0.543889 0.465651 0.386484 0.343154 0.341941 0.354579 0.332867 0.238091 0.070546 -0.115363 -0.222014 -0.150418 0.141656 0.601438 1.085442 1.401622 1.411802 1.119175 0.618539 0.012641 -0.618117 -1.216816 -1.744554 -2.165773 -2.432679 -2.477859 -2.214653 -1.545391 -0.395283 1.204550 3.041238 4.773562 6.158067 7.189288 5.550893 5.657141 5.755153 5.843210 5.919285 5.980997 6.025575 6.049821 6.050108 6.022406 5.962385 5.865603 5.727852 5.545663 5.317025 5.042247 4.724840 4.372094 3.994910 3.605832 3.211379 2.793681 2.301790 1.706813 1.074008 0.520555 0.122963 -0.104111 -0.186457 -0.165664 -0.080357 0.037483 0.158815 0.255514 0.302681 0.285747 0.209892 0.106969 0.028440 0.013244 0.055804 0.101296 0.053511 -0.181074 -0.630928 -1.210421 -1.720844 -1.934488 -1.719360 -1.116974 -0.335940 0.325772 0.644101 0.595329 0.271034 -0.226876 -0.812648 -1.420778 -2.003111 -2.518878 -2.923546 -3.159864 -3.146383 -2.761243 -1.861151 -0.414533 1.362677 3.117884 4.602543 5.761382 5.595165 5.697627 5.791562 5.875263 5.946728 6.003623 6.043244 6.062490 6.057858 6.025460 5.961106 5.860445 5.719210 5.533568 5.300568 5.018637 4.688014 4.310945 3.891365 3.433629 2.939728 2.406453 1.831035 1.232919 0.668297 0.206187 -0.106853 -0.260202 -0.276920 -0.201334 -0.083658 0.031492 0.115869 0.158298 0.153573 0.100671 0.010161 -0.087557 -0.142098 -0.118913 -0.034122 0.042482 -0.023607 -0.402737 -1.217260 -2.391947 -3.566868 -4.274085 -4.241700 -3.534930 -2.460284 -1.382055 -0.572685 -0.148641 -0.102829 -0.359907 -0.819587 -1.389959 -1.998314 -2.584115 -3.088674 -3.446194 -3.573252 -3.358933 -2.687617 -1.537404 -0.063797 1.482402 2.901957 4.101238 5.623510 5.721656 5.811033 5.889966 5.956503 6.008376 6.042973 6.057306 6.047999 6.011298 5.943118 5.839149 5.695031 5.506618 5.270343 4.983656 4.645482 4.256532 3.819168 3.336622 2.812303 2.251944 1.670913 1.102017 0.592768 0.189808 -0.077325 -0.203041 -0.204083 -0.115888 0.006877 0.101637 0.137536 0.127470 0.089941 0.031449 -0.040664 -0.106826 -0.137234 -0.112416 -0.049642 -0.020034 -0.158625 -0.672442 -1.789193 -3.493290 -5.275879 -6.414201 -6.502003 -5.663600 -4.309238 -2.853283 -1.603063 -0.744859 -0.347789 -0.370573 -0.703986 -1.231471 -1.855239 -2.490651 -3.056924 -3.472074 -3.651858 -3.516021 -3.010938 -2.147981 -1.022643 0.219586 1.442286 2.553373 5.637489 5.730858 5.815251 5.889033 5.950313 5.996906 6.026298 6.035620 6.021628 5.980699 5.908861 5.801875 5.655386 5.465201 5.227728 4.940661 4.603943 4.220826 3.798092 3.343290 2.858137 2.337053 1.784834 1.236643 0.745774 0.354834 0.084151 -0.064555 -0.103007 -0.057082 0.025976 0.086337 0.094815 0.067730 0.026568 -0.022800 -0.079225 -0.137119 -0.189219 -0.238152 -0.311403 -0.474013 -0.837813 -1.563241 -2.799017 -4.475262 -6.138882 -7.171168 -7.210593 -6.343703 -4.925591 -3.344192 -1.916647 -0.864285 -0.296300 -0.201321 -0.483331 -1.021091 -1.700327 -2.416409 -3.069664 -3.564562 -3.816296 -3.764624 -3.389863 -2.721965 -1.834744 -0.825252 0.211547 1.200760 5.638909 5.727124 5.806170 5.874463 5.930176 5.971208 5.995153 5.999268 5.980449 5.935224 5.859771 5.749992 5.601667 5.410770 5.174038 4.889981 4.560563 4.193570 3.804086 3.408771 3.004273 2.550328 2.016114 1.445922 0.925630 0.507976 0.203828 0.006188 -0.098137 -0.128995 -0.115822 -0.092294 -0.080597 -0.085804 -0.107994 -0.150731 -0.218928 -0.316194 -0.447304 -0.624972 -0.877576 -1.253926 -1.820187 -2.639535 -3.719074 -4.932629 -5.997470 -6.577436 -6.454915 -5.637184 -4.325028 -2.811646 -1.403913 -0.361721 0.172777 0.204286 -0.167601 -0.817515 -1.626534 -2.484390 -3.282350 -3.910623 -4.270386 -4.300646 -4.000187 -3.422872 -2.651383 -1.771606 -0.858331 0.030327 5.629783 5.712566 5.785994 5.848531 5.898416 5.933632 5.951883 5.950556 5.926702 5.877023 5.797888 5.685400 5.535544 5.344503 5.109237 4.828531 4.504757 4.146398 3.769702 3.392637 3.011249 2.580125 2.061884 1.498140 0.973949 0.539121 0.202056 -0.043226 -0.205434 -0.296125 -0.331317 -0.330541 -0.313873 -0.300464 -0.309379 -0.358980 -0.463102 -0.628569 -0.858585 -1.159242 -1.543699 -2.030901 -2.636101 -3.350912 -4.118612 -4.828182 -5.344922 -5.533989 -5.266988 -4.492171 -3.291296 -1.859964 -0.491131 0.472211 0.833791 0.652866 0.086881 -0.729178 -1.689539 -2.698374 -3.651467 -4.425353 -4.893991 -4.980864 -4.699840 -4.139887 -3.409482 -2.596986 -1.764844 -0.956162 5.612278 5.689474 5.757129 5.813752 5.857640 5.886861 5.899221 5.892240 5.863129 5.808782 5.725785 5.610473 5.459059 5.267889 5.033898 4.755360 4.433029 4.071475 3.679540 3.267111 2.836359 2.377408 1.886129 1.384684 0.907026 0.476856 0.110250 -0.179772 -0.387345 -0.515747 -0.575839 -0.583532 -0.558335 -0.525172 -0.517849 -0.576337 -0.728928 -0.976220 -1.302351 -1.693870 -2.143605 -2.645373 -3.185278 -3.730078 -4.219124 -4.577304 -4.749498 -4.693558 -4.335997 -3.620216 -2.577037 -1.329757 -0.116831 0.707234 0.924481 0.619299 -0.033792 -0.906212 -1.905654 -2.949023 -3.940451 -4.756093 -5.262433 -5.380148 -5.128924 -4.610283 -3.941254 -3.207480 -2.462159 -1.738470 5.588632 5.660230 5.722103 5.772796 5.810661 5.833836 5.840225 5.827473 5.792949 5.733738 5.646652 5.528275 5.375062 5.183525 4.950543 4.673836 4.352604 3.988248 3.584889 3.149408 2.691378 2.224183 1.764905 1.323213 0.886988 0.445339 0.027579 -0.317352 -0.563606 -0.713323 -0.784054 -0.795596 -0.763600 -0.709368 -0.677170 -0.736581 -0.938533 -1.267990 -1.675061 -2.122481 -2.589126 -3.058006 -3.506147 -3.901166 -4.203891 -4.374309 -4.380412 -4.196893 -3.798176 -3.175281 -2.362027 -1.449409 -0.599056 -0.020096 0.147602 -0.087990 -0.633736 -1.387282 -2.258500 -3.163945 -4.015061 -4.710789 -5.151210 -5.277746 -5.104982 -4.706599 -4.170016 -3.564637 -2.937086 -2.317627 5.561052 5.627196 5.683441 5.728360 5.760348 5.777606 5.778121 5.759650 5.719705 5.655554 5.564229 5.442564 5.287276 5.095100 4.863017 4.588571 4.270332 3.908497 3.505716 3.068369 2.608577 2.146143 1.704506 1.289874 0.870475 0.417764 -0.030965 -0.405625 -0.669991 -0.827690 -0.902754 -0.918825 -0.890166 -0.837121 -0.808452 -0.878567 -1.101073 -1.461050 -1.897927 -2.355658 -2.804472 -3.230883 -3.609402 -3.903274 -4.087342 -4.148782 -4.077311 -3.864376 -3.508740 -3.024626 -2.449913 -1.852141 -1.327594 -0.981500 -0.888738 -1.065321 -1.474185 -2.049521 -2.716494 -3.400343 -4.028592 -4.532496 -4.854677 -4.964013 -4.866304 -4.598314 -4.209593 -3.746760 -3.247043 -2.738133 5.531584 5.592567 5.643499 5.682973 5.709419 5.721086 5.716030 5.692102 5.646939 5.577970 5.482426 5.357381 5.199819 5.006755 4.775409 4.503481 4.189518 3.833455 3.437364 3.006540 2.550859 2.085439 1.627336 1.184694 0.748777 0.313634 -0.096255 -0.440675 -0.694792 -0.855698 -0.935181 -0.949337 -0.913974 -0.854782 -0.820275 -0.879891 -1.092783 -1.458253 -1.911164 -2.375271 -2.809797 -3.203466 -3.534428 -3.769552 -3.894776 -3.914284 -3.833832 -3.657362 -3.392515 -3.056848 -2.681972 -2.314522 -2.011994 -1.831638 -1.814738 -1.973961 -2.290408 -2.720006 -3.204713 -3.685292 -4.111725 -4.445824 -4.660004 -4.738969 -4.682311 -4.503756 -4.226601 -3.878011 -3.484548 -3.069609 5.501963 5.558198 5.604264 5.638769 5.660166 5.666741 5.656602 5.627675 5.577698 5.504230 5.404672 5.276302 5.116349 4.922100 4.691068 4.421231 4.111368 3.761504 3.373500 2.951728 2.503701 2.040136 1.573648 1.115957 0.676384 0.265059 -0.103198 -0.411615 -0.647673 -0.806149 -0.888922 -0.903373 -0.861767 -0.784851 -0.712684 -0.721995 -0.909511 -1.291744 -1.773835 -2.256384 -2.689331 -3.055109 -3.342464 -3.541759 -3.653195 -3.684509 -3.643460 -3.536164 -3.370446 -3.160406 -2.929657 -2.711160 -2.542630 -2.459135 -2.485549 -2.630483 -2.883147 -3.213473 -3.572577 -3.906452 -4.189424 -4.416151 -4.575533 -4.652812 -4.637026 -4.525329 -4.324954 -4.052066 -3.728023 -3.374965 5.473480 5.525445 5.567163 5.597253 5.614181 5.616257 5.601625 5.568265 5.513986 5.436447 5.333170 5.201588 5.039113 4.843241 4.611712 4.342735 4.035298 3.689567 3.307378 2.892764 2.452406 1.995784 1.534786 1.082741 0.653263 0.259435 -0.086766 -0.375281 -0.599094 -0.755252 -0.845398 -0.875725 -0.856983 -0.806807 -0.758790 -0.777432 -0.942990 -1.270809 -1.686443 -2.108273 -2.490649 -2.813835 -3.070429 -3.259700 -3.385311 -3.452343 -3.464440 -3.423202 -3.330700 -3.195203 -3.037745 -2.891496 -2.789040 -2.750379 -2.784359 -2.893738 -3.074693 -3.314091 -3.579267 -3.825184 -4.052535 -4.279990 -4.491327 -4.651570 -4.726441 -4.693887 -4.551802 -4.317725 -4.020350 -3.689293 5.446862 5.495021 5.532896 5.559106 5.572120 5.570258 5.551684 5.514404 5.456275 5.375015 5.268224 5.133431 4.968153 4.769998 4.536813 4.266894 3.959275 3.614110 3.233155 2.820307 2.382151 1.928322 1.471390 1.025887 0.606279 0.224598 -0.110458 -0.392328 -0.615867 -0.779175 -0.885677 -0.944179 -0.968060 -0.975989 -0.994847 -1.060514 -1.205680 -1.435660 -1.722520 -2.027290 -2.319477 -2.580768 -2.802170 -2.980758 -3.116598 -3.209528 -3.256337 -3.249460 -3.179413 -3.045721 -2.876224 -2.727984 -2.646049 -2.630885 -2.659760 -2.719330 -2.805758 -2.918115 -3.063230 -3.263693 -3.550699 -3.923993 -4.331671 -4.695369 -4.939039 -5.012216 -4.909996 -4.671387 -4.353096 -4.003822 5.422201 5.466915 5.501333 5.524059 5.533554 5.528126 5.505937 5.464996 5.403176 5.318219 5.207768 5.069396 4.900674 4.699252 4.462995 4.190176 3.879743 3.531703 3.147627 2.731329 2.289681 1.833474 1.377823 0.940818 0.538440 0.176695 -0.149174 -0.441032 -0.688203 -0.878742 -1.012839 -1.101874 -1.161885 -1.210484 -1.266406 -1.347606 -1.466399 -1.624627 -1.813390 -2.017716 -2.222120 -2.414107 -2.585684 -2.733285 -2.855465 -2.948421 -3.001944 -2.998730 -2.918718 -2.754093 -2.537622 -2.344411 -2.233199 -2.204495 -2.221844 -2.254701 -2.282013 -2.296820 -2.336004 -2.495816 -2.871187 -3.453369 -4.126702 -4.747579 -5.188225 -5.365297 -5.276953 -4.999748 -4.633923 -4.251233 5.398942 5.440375 5.471495 5.490876 5.496944 5.487972 5.462084 5.417262 5.351359 5.262112 5.147176 5.004155 4.830663 4.624402 4.383282 4.105596 3.790269 3.437223 3.047910 2.626109 2.179113 1.719370 1.266102 0.844366 0.474898 0.152130 -0.158939 -0.477467 -0.776000 -1.014690 -1.183729 -1.297353 -1.374425 -1.433884 -1.496286 -1.577538 -1.680531 -1.799363 -1.928100 -2.061689 -2.193362 -2.314905 -2.420433 -2.510971 -2.593033 -2.666539 -2.714261 -2.707854 -2.622599 -2.450314 -2.212707 -1.963589 -1.764988 -1.663393 -1.676494 -1.771518 -1.875982 -1.939710 -1.993787 -2.162166 -2.573753 -3.226396 -3.985954 -4.689720 -5.195569 -5.412470 -5.340510 -5.066588 -4.704742 -4.333077 5.375928 5.413966 5.441631 5.457445 5.459762 5.446779 5.416541 5.366951 5.295796 5.200771 5.079521 4.929686 4.748972 4.535237 4.286619 4.001705 3.679755 3.321014 2.927120 2.501774 2.051903 1.589616 1.134482 0.713042 0.347509 0.030073 -0.280803 -0.608103 -0.922125 -1.177096 -1.358764 -1.475923 -1.539773 -1.570791 -1.612893 -1.703013 -1.827197 -1.948971 -2.054261 -2.146061 -2.225014 -2.284468 -2.318200 -2.334975 -2.360835 -2.408933 -2.453347 -2.447519 -2.360454 -2.186115 -1.937367 -1.645334 -1.371365 -1.221854 -1.293788 -1.554602 -1.862973 -2.117222 -2.320926 -2.556279 -2.911712 -3.401881 -3.957327 -4.473868 -4.851208 -5.021842 -4.981228 -4.785869 -4.512265 -4.219031 5.351506 5.385692 5.409371 5.420970 5.418733 5.400723 5.364838 5.308836 5.230366 5.127024 4.996406 4.836199 4.644273 4.418822 4.158537 3.862829 3.532087 3.167895 2.773060 2.351343 1.907390 1.448309 0.987317 0.544975 0.141408 -0.218146 -0.546220 -0.851851 -1.124085 -1.346348 -1.512710 -1.622389 -1.673380 -1.682131 -1.708917 -1.807729 -1.952165 -2.083053 -2.181742 -2.257185 -2.314138 -2.346254 -2.346037 -2.322894 -2.307498 -2.318576 -2.334083 -2.309302 -2.216037 -2.052201 -1.833376 -1.591489 -1.387434 -1.321704 -1.479303 -1.825981 -2.232179 -2.595790 -2.890367 -3.141012 -3.390442 -3.664943 -3.954139 -4.218928 -4.412112 -4.499226 -4.473571 -4.356469 -4.182883 -3.985608 5.323673 5.353179 5.371939 5.378247 5.370181 5.345602 5.302183 5.237440 5.148792 5.033637 4.889457 4.713949 4.505198 4.261900 3.983667 3.671431 3.327949 2.958234 2.569203 2.166955 1.751181 1.313927 0.853669 0.390661 -0.043840 -0.429866 -0.763448 -1.047345 -1.284232 -1.477053 -1.629839 -1.745038 -1.823441 -1.874921 -1.928290 -2.008039 -2.104113 -2.195240 -2.279084 -2.359664 -2.430612 -2.478618 -2.492992 -2.473554 -2.433347 -2.388116 -2.341023 -2.279978 -2.188040 -2.058666 -1.906685 -1.769416 -1.701314 -1.759288 -1.968945 -2.296407 -2.668530 -3.013912 -3.293799 -3.501011 -3.652696 -3.776607 -3.887794 -3.982382 -4.045846 -4.064384 -4.032934 -3.957134 -3.849884 -3.726008 5.290251 5.313872 5.326396 5.325948 5.310389 5.277315 5.224085 5.147878 5.045767 4.914841 4.752350 4.555912 4.323761 4.055107 3.750622 3.413139 3.048621 2.667306 2.283816 1.911733 1.546661 1.154335 0.707515 0.234798 -0.206943 -0.589000 -0.911129 -1.178188 -1.394784 -1.568701 -1.709924 -1.826886 -1.924711 -2.006480 -2.073916 -2.124811 -2.158113 -2.194290 -2.271416 -2.393274 -2.518301 -2.608334 -2.646996 -2.628375 -2.555637 -2.450905 -2.351137 -2.275259 -2.204712 -2.111960 -1.998212 -1.897351 -1.860864 -1.938559 -2.150374 -2.464721 -2.814187 -3.133266 -3.381235 -3.546963 -3.644333 -3.697925 -3.727451 -3.741790 -3.741396 -3.723483 -3.686349 -3.631403 -3.562998 -3.487012 5.249065 5.265234 5.269861 5.260888 5.235927 5.192264 5.126895 5.036590 4.918007 4.767847 4.583047 4.361017 4.099938 3.799202 3.460088 3.086766 2.687545 2.276030 1.870899 1.489836 1.131772 0.764563 0.362759 -0.045205 -0.413117 -0.735602 -1.025861 -1.277136 -1.478182 -1.634394 -1.761122 -1.871434 -1.971426 -2.060126 -2.129468 -2.165454 -2.163295 -2.163886 -2.244843 -2.413894 -2.591731 -2.717910 -2.777210 -2.767224 -2.690982 -2.572868 -2.458004 -2.372362 -2.296042 -2.191903 -2.048099 -1.885639 -1.755702 -1.740704 -1.909965 -2.237538 -2.615218 -2.948347 -3.196506 -3.357756 -3.448289 -3.489360 -3.499470 -3.491158 -3.471296 -3.443042 -3.407956 -3.367464 -3.323471 -3.278315 5.198118 5.204924 5.199697 5.180210 5.143840 5.087575 5.008059 4.901690 4.764779 4.593770 4.385463 4.137190 3.846898 3.513299 3.136614 2.720411 2.273914 1.812804 1.356916 0.924442 0.523983 0.152807 -0.188185 -0.483087 -0.727136 -0.949854 -1.173550 -1.378119 -1.539307 -1.663834 -1.773382 -1.881967 -1.990898 -2.094095 -2.182637 -2.247387 -2.288354 -2.332273 -2.422409 -2.562671 -2.708897 -2.822822 -2.890347 -2.906711 -2.871691 -2.796319 -2.701765 -2.600792 -2.484267 -2.333572 -2.139498 -1.910606 -1.689917 -1.580074 -1.689665 -1.998490 -2.369947 -2.694742 -2.937296 -3.100586 -3.198667 -3.247414 -3.261768 -3.254225 -3.234067 -3.207487 -3.178340 -3.149012 -3.121114 -3.095869 5.135743 5.130939 5.113630 5.081475 5.031688 4.961044 4.865953 4.742617 4.587314 4.396779 4.168609 3.901357 3.593721 3.242574 2.841874 2.387427 1.887330 1.365949 0.854398 0.377957 -0.048600 -0.417004 -0.720189 -0.954601 -1.130241 -1.271553 -1.394243 -1.492062 -1.562645 -1.629019 -1.721374 -1.845813 -1.983657 -2.114447 -2.227957 -2.322946 -2.405332 -2.487260 -2.580504 -2.685582 -2.791166 -2.884161 -2.954983 -2.996263 -3.002574 -2.972384 -2.908033 -2.812066 -2.684526 -2.525270 -2.338567 -2.138510 -1.960195 -1.867841 -1.919822 -2.102216 -2.337805 -2.561101 -2.746990 -2.890229 -2.988791 -3.044200 -3.064035 -3.059297 -3.040490 -3.015629 -2.990034 -2.966914 -2.948062 -2.934405 5.060720 5.041712 5.009804 4.962650 4.897425 4.810846 4.699281 4.559003 4.386671 4.180122 3.939410 3.667537 3.368693 3.039933 2.658301 2.188604 1.628965 1.032887 0.466207 -0.035028 -0.464181 -0.820789 -1.099220 -1.299001 -1.431920 -1.514228 -1.556863 -1.565999 -1.558464 -1.575600 -1.659356 -1.806172 -1.972085 -2.118838 -2.232693 -2.318214 -2.391618 -2.471182 -2.564463 -2.665900 -2.766207 -2.859024 -2.939789 -3.002929 -3.041539 -3.049031 -3.020904 -2.955874 -2.856681 -2.730771 -2.590663 -2.454226 -2.344668 -2.286312 -2.291147 -2.346264 -2.425350 -2.516971 -2.626013 -2.745184 -2.847066 -2.909072 -2.930172 -2.922318 -2.898788 -2.869633 -2.841336 -2.817677 -2.800638 -2.791078 4.972356 4.936153 4.886774 4.822011 4.739178 4.635127 4.506381 4.349451 4.161471 3.941327 3.691425 3.419582 3.137709 2.847690 2.510434 2.049875 1.448134 0.795398 0.196361 -0.306493 -0.717763 -1.046878 -1.292403 -1.456174 -1.553192 -1.602015 -1.617041 -1.610752 -1.603048 -1.627320 -1.712216 -1.849749 -1.999210 -2.120436 -2.192172 -2.218905 -2.236152 -2.288713 -2.387218 -2.505344 -2.618816 -2.722680 -2.819014 -2.906519 -2.979937 -3.032159 -3.055414 -3.043597 -2.996163 -2.920316 -2.829717 -2.740970 -2.669321 -2.623638 -2.601484 -2.589596 -2.578731 -2.584809 -2.633637 -2.721307 -2.809248 -2.860340 -2.868739 -2.847341 -2.810831 -2.770057 -2.731952 -2.700591 -2.678148 -2.665562 4.870517 4.813644 4.743437 4.658008 4.555015 4.431672 4.284850 4.111350 3.908445 3.674834 3.412037 3.125656 2.823768 2.506034 2.143514 1.685366 1.124224 0.528801 -0.019438 -0.479950 -0.847089 -1.126201 -1.323072 -1.448584 -1.520691 -1.558864 -1.580007 -1.598973 -1.631081 -1.691791 -1.789051 -1.913429 -2.038522 -2.131402 -2.165461 -2.140052 -2.099946 -2.106166 -2.172860 -2.265211 -2.357368 -2.452861 -2.557072 -2.665830 -2.775751 -2.886101 -2.986743 -3.057458 -3.084113 -3.068913 -3.026312 -2.974203 -2.927221 -2.892787 -2.869529 -2.849752 -2.828822 -2.816078 -2.827236 -2.859942 -2.890033 -2.895601 -2.872538 -2.828429 -2.773309 -2.715735 -2.662052 -2.616574 -2.581958 -2.559571 4.755621 4.674001 4.578953 4.469112 4.342729 4.197658 4.031388 3.841191 3.624414 3.378974 3.103962 2.799948 2.467964 2.106073 1.706101 1.259863 0.776841 0.290692 -0.158159 -0.541141 -0.845372 -1.069717 -1.221769 -1.316276 -1.372184 -1.408666 -1.442452 -1.487087 -1.552955 -1.646400 -1.767196 -1.905770 -2.042745 -2.152253 -2.210021 -2.207580 -2.164176 -2.111978 -2.063695 -2.019615 -2.004792 -2.055592 -2.166962 -2.300858 -2.446205 -2.621647 -2.820163 -2.995938 -3.110164 -3.159396 -3.162482 -3.142013 -3.115547 -3.093308 -3.078419 -3.068439 -3.058624 -3.046014 -3.030508 -3.011813 -2.987455 -2.953852 -2.907900 -2.848793 -2.779340 -2.705229 -2.632982 -2.568301 -2.515344 -2.476659 4.628673 4.517495 4.392739 4.253778 4.099740 3.929468 3.741489 3.534006 3.304964 3.052200 2.773689 2.467810 2.133541 1.770721 1.381201 0.971820 0.557710 0.161186 -0.195936 -0.499611 -0.742198 -0.919436 -1.034854 -1.102823 -1.143787 -1.177733 -1.220586 -1.283443 -1.373169 -1.492923 -1.641570 -1.811745 -1.987786 -2.146316 -2.261571 -2.313825 -2.294870 -2.204880 -2.049364 -1.859901 -1.724069 -1.734678 -1.880175 -2.069297 -2.261433 -2.479951 -2.725360 -2.949310 -3.107225 -3.193638 -3.226700 -3.227574 -3.212727 -3.194068 -3.180193 -3.174102 -3.168884 -3.149830 -3.107056 -3.048847 -2.997401 -2.964037 -2.935607 -2.891762 -2.824794 -2.740291 -2.648937 -2.560843 -2.483599 -2.422111 4.491406 4.345066 4.184758 4.010799 3.823489 3.623072 3.409649 3.183041 2.942610 2.687131 2.414809 2.123600 1.811927 1.479940 1.131405 0.776080 0.431215 0.118069 -0.150471 -0.378153 -0.568284 -0.709262 -0.793289 -0.833984 -0.857148 -0.886432 -0.936802 -1.014576 -1.121143 -1.257286 -1.425543 -1.627127 -1.852137 -2.073336 -2.254374 -2.364960 -2.390426 -2.331094 -2.197749 -2.024733 -1.892928 -1.888906 -2.013543 -2.194480 -2.383677 -2.579220 -2.777739 -2.954931 -3.088061 -3.172106 -3.213688 -3.220714 -3.199610 -3.161341 -3.128389 -3.124042 -3.142798 -3.143835 -3.091952 -3.005597 -2.947101 -2.949179 -2.977124 -2.975593 -2.923646 -2.831577 -2.718520 -2.601543 -2.493272 -2.402037 4.346618 4.158854 3.956322 3.740442 3.512936 3.275854 3.031486 2.782092 2.529412 2.274097 2.015320 1.750903 1.478200 1.195723 0.905388 0.614963 0.339463 0.097563 -0.101184 -0.264382 -0.397309 -0.487353 -0.525426 -0.527612 -0.526682 -0.552889 -0.618776 -0.718640 -0.840992 -0.980471 -1.146814 -1.362905 -1.634470 -1.923648 -2.172616 -2.342509 -2.428518 -2.450869 -2.430263 -2.381987 -2.333419 -2.323423 -2.368730 -2.455385 -2.563724 -2.682451 -2.803264 -2.916177 -3.012329 -3.086313 -3.133607 -3.146812 -3.117685 -3.052745 -2.995366 -3.005508 -3.088210 -3.172696 -3.187226 -3.140909 -3.105825 -3.124112 -3.163224 -3.164654 -3.104582 -2.992451 -2.848900 -2.694844 -2.547719 -2.419836 4.198564 3.962944 3.711375 3.446490 3.171587 2.890814 2.609214 2.332353 2.065355 1.811569 1.571491 1.342588 1.120229 0.899701 0.678830 0.460342 0.252760 0.068276 -0.082986 -0.196882 -0.270440 -0.298169 -0.281147 -0.238075 -0.208497 -0.237436 -0.335037 -0.473122 -0.623646 -0.776194 -0.944531 -1.164589 -1.452846 -1.769971 -2.055402 -2.276167 -2.433185 -2.543816 -2.617821 -2.652303 -2.648566 -2.625845 -2.607459 -2.606398 -2.625691 -2.663994 -2.718752 -2.786803 -2.863887 -2.943562 -3.015815 -3.066620 -3.082338 -3.065670 -3.056729 -3.113837 -3.245465 -3.389219 -3.477241 -3.499878 -3.493274 -3.486998 -3.475239 -3.433438 -3.343750 -3.203316 -3.023678 -2.826639 -2.635878 -2.468783 4.053023 3.763695 3.457408 3.138214 2.811097 2.482468 2.160558 1.854983 1.574681 1.324991 1.106590 0.916479 0.748387 0.593768 0.445199 0.299816 0.160475 0.034489 -0.069091 -0.142112 -0.178765 -0.177061 -0.142158 -0.092016 -0.063871 -0.102648 -0.217152 -0.376347 -0.552494 -0.736373 -0.934671 -1.162737 -1.423551 -1.695622 -1.955681 -2.195445 -2.409999 -2.587477 -2.710993 -2.770957 -2.772046 -2.731815 -2.672077 -2.611088 -2.561718 -2.533682 -2.535704 -2.574443 -2.650481 -2.755846 -2.876277 -2.996104 -3.103596 -3.197885 -3.294056 -3.412503 -3.552248 -3.682598 -3.768785 -3.797778 -3.780398 -3.738122 -3.686758 -3.623901 -3.528826 -3.380096 -3.177301 -2.946261 -2.722284 -2.528612 3.916557 3.568634 3.204171 2.829324 2.451162 2.078532 1.723205 1.399540 1.119330 0.883918 0.687319 0.527752 0.403535 0.304390 0.216765 0.132070 0.048934 -0.028536 -0.093628 -0.139783 -0.162891 -0.163232 -0.147444 -0.130520 -0.135525 -0.185014 -0.286199 -0.429722 -0.603181 -0.799148 -1.014067 -1.243614 -1.478407 -1.707501 -1.929844 -2.150489 -2.363122 -2.546060 -2.674496 -2.738258 -2.741308 -2.695227 -2.614888 -2.515374 -2.411434 -2.320929 -2.269184 -2.283969 -2.376680 -2.531124 -2.717544 -2.911772 -3.100650 -3.279225 -3.447143 -3.604287 -3.745498 -3.857772 -3.922814 -3.926192 -3.871376 -3.787242 -3.709928 -3.647965 -3.573773 -3.445230 -3.245912 -3.008562 -2.784552 -2.596230 3.795340 3.383792 2.959064 2.531070 2.109961 1.706830 1.335338 1.011836 0.747925 0.537614 0.365457 0.230468 0.136825 0.073941 0.024037 -0.024940 -0.076419 -0.127727 -0.173541 -0.208943 -0.231644 -0.243226 -0.249514 -0.260102 -0.286595 -0.339355 -0.424666 -0.545037 -0.701247 -0.891781 -1.109847 -1.342602 -1.574496 -1.792814 -1.992019 -2.171465 -2.328217 -2.456473 -2.552077 -2.610780 -2.625522 -2.591669 -2.512088 -2.395084 -2.251969 -2.103209 -1.992824 -1.983627 -2.106323 -2.325219 -2.579706 -2.832271 -3.069207 -3.284710 -3.472686 -3.628322 -3.754779 -3.859418 -3.932952 -3.947100 -3.890587 -3.797375 -3.717053 -3.661030 -3.608535 -3.513321 -3.343006 -3.128427 -2.926350 -2.749432 3.695950 3.212428 2.722612 2.243285 1.789639 1.374405 1.008552 0.701834 0.459442 0.276093 0.139919 0.043637 -0.018986 -0.061097 -0.097862 -0.138919 -0.186436 -0.236894 -0.284199 -0.323339 -0.353157 -0.376542 -0.398703 -0.425385 -0.461659 -0.511602 -0.579818 -0.674697 -0.809066 -0.991813 -1.215804 -1.458596 -1.695278 -1.907316 -2.083025 -2.216082 -2.308283 -2.374343 -2.432070 -2.483959 -2.513866 -2.501413 -2.439915 -2.334705 -2.196535 -2.046334 -1.931146 -1.919946 -2.047430 -2.275783 -2.540307 -2.801677 -3.044769 -3.259814 -3.433673 -3.557559 -3.649300 -3.749022 -3.861497 -3.936953 -3.936601 -3.881896 -3.825055 -3.796023 -3.782385 -3.741838 -3.639694 -3.477040 -3.276938 -3.057587 3.632060 3.060979 2.492404 1.955624 1.474872 1.064916 0.730732 0.470292 0.277215 0.141732 0.051635 -0.006227 -0.045589 -0.080136 -0.120976 -0.174194 -0.239947 -0.312303 -0.380611 -0.436029 -0.479002 -0.516982 -0.556857 -0.602048 -0.653132 -0.709364 -0.772284 -0.852205 -0.971071 -1.147747 -1.374767 -1.619885 -1.850195 -2.045537 -2.195916 -2.297937 -2.357340 -2.392687 -2.425201 -2.460083 -2.482957 -2.475301 -2.431134 -2.356488 -2.263640 -2.171619 -2.110827 -2.117714 -2.210984 -2.376241 -2.582639 -2.804408 -3.023911 -3.225739 -3.393867 -3.519012 -3.616291 -3.720272 -3.835740 -3.921081 -3.943890 -3.921467 -3.899101 -3.909014 -3.948499 -3.985686 -3.978075 -3.882635 -3.676554 -3.391024 3.638701 2.956016 2.281117 1.667055 1.155922 0.765181 0.487843 0.303569 0.189313 0.124140 0.089872 0.070498 0.051980 0.022873 -0.024751 -0.094778 -0.186475 -0.291930 -0.394119 -0.477594 -0.544725 -0.609554 -0.681225 -0.761196 -0.847217 -0.936234 -1.027941 -1.130098 -1.259965 -1.431789 -1.638197 -1.851757 -2.044894 -2.201992 -2.318420 -2.396615 -2.444130 -2.472231 -2.491192 -2.503540 -2.503713 -2.4858