# vtk DataFile Version 3.0
vtk output
ASCII
DATASET STRUCTURED_POINTS
DIMENSIONS 100 100 1
SPACING 0.010101 0.010101 0
ORIGIN 0.000000 0.000000 0
POINT_DATA 10000
SCALARS RTData float
LOOKUP_TABLE default
0.000000 0.000000 0.000000 0.000001 0.000004 0.000009 0.000019 0.000036 0.000063 0.000104 0.000162 0.000244 0.000354 0.000501 0.000692 0.000937 0.001247 0.001635 0.002115 0.002705 0.003423 0.004291 0.005334 0.006579 0.008057 0.009804 0.011860 0.014267 0.017073 0.020332 0.024100 0.028440 0.033417 0.039101 0.045562 0.052872 0.061100 0.070312 0.080567 0.091910 0.104372 0.117965 0.132674 0.148458 0.165243 0.182925 0.201364 0.220393 0.239818 0.259427 0.278998 0.298309 0.317147 0.335317 0.352650 0.369007 0.384284 0.398409 0.411348 0.423093 0.433664 0.443102 0.451466 0.458825 0.465256 0.470840 0.475659 0.479792 0.483318 0.486308 0.488829 0.490943 0.492705 0.494166 0.495368 0.496352 0.497152 0.497797 0.498313 0.498723 0.499045 0.499295 0.499488 0.499634 0.499744 0.499824 0.499883 0.499924 0.499952 0.499971 0.499984 0.499991 0.499996 0.499998 0.499999 0.500000 0.500000 0.500000 0.500000 0.500000 0.000000 0.000000 0.000000 0.000001 0.000004 0.000010 0.000021 0.000039 0.000067 0.000109 0.000169 0.000252 0.000365 0.000515 0.000710 0.000959 0.001275 0.001670 0.002158 0.002757 0.003485 0.004365 0.005421 0.006681 0.008177 0.009943 0.012020 0.014450 0.017281 0.020567 0.024365 0.028736 0.033746 0.039464 0.045961 0.053307 0.061571 0.070820 0.081109 0.092485 0.104977 0.118595 0.133326 0.149126 0.165923 0.183608 0.202045 0.221065 0.240475 0.260063 0.279608 0.298890 0.317696 0.335833 0.353130 0.369452 0.384694 0.398786 0.411693 0.423408 0.433950 0.443363 0.451702 0.459039 0.465449 0.471014 0.475815 0.479932 0.483443 0.486419 0.488927 0.491030 0.492781 0.494232 0.495426 0.496402 0.497194 0.497833 0.498343 0.498748 0.499065 0.499312 0.499501 0.499645 0.499752 0.499831 0.499887 0.499927 0.499955 0.499973 0.499985 0.499992 0.499996 0.499998 0.499999 0.500000 0.500000 0.500000 0.500000 0.500000 0.000000 0.000000 0.000001 0.000002 0.000006 0.000013 0.000025 0.000044 0.000074 0.000119 0.000182 0.000269 0.000387 0.000542 0.000743 0.001000 0.001325 0.001729 0.002229 0.002840 0.003584 0.004480 0.005555 0.006836 0.008354 0.010146 0.012250 0.014710 0.017574 0.020895 0.024730 0.029140 0.034191 0.039952 0.046491 0.053880 0.062187 0.071476 0.081804 0.093214 0.105737 0.119380 0.134128 0.149939 0.166737 0.184416 0.202837 0.221834 0.241212 0.260763 0.280266 0.299501 0.318259 0.336346 0.353595 0.369870 0.385067 0.399118 0.411987 0.423668 0.434180 0.443565 0.451881 0.459197 0.465588 0.471137 0.475924 0.480028 0.483528 0.486494 0.488993 0.491087 0.492831 0.494275 0.495463 0.496434 0.497222 0.497856 0.498363 0.498764 0.499078 0.499322 0.499510 0.499651 0.499757 0.499834 0.499890 0.499929 0.499956 0.499974 0.499985 0.499992 0.499996 0.499998 0.499999 0.500000 0.500000 0.500000 0.500000 0.500000 0.000001 0.000001 0.000002 0.000005 0.000009 0.000018 0.000032 0.000054 0.000087 0.000135 0.000203 0.000296 0.000420 0.000583 0.000793 0.001060 0.001397 0.001814 0.002329 0.002958 0.003721 0.004639 0.005737 0.007045 0.008592 0.010416 0.012554 0.015052 0.017956 0.021319 0.025199 0.029657 0.034757 0.040566 0.047156 0.054595 0.062950 0.072286 0.082655 0.094103 0.106656 0.120322 0.135084 0.150899 0.167690 0.185352 0.203745 0.222703 0.242035 0.261531 0.280974 0.300146 0.318839 0.336861 0.354048 0.370264 0.385407 0.399409 0.412234 0.423877 0.434356 0.443714 0.452006 0.459302 0.465677 0.471212 0.475988 0.480083 0.483575 0.486534 0.489028 0.491117 0.492858 0.494298 0.495482 0.496450 0.497235 0.497868 0.498372 0.498772 0.499085 0.499328 0.499514 0.499654 0.499759 0.499836 0.499891 0.499930 0.499956 0.499974 0.499985 0.499992 0.499996 0.499998 0.499999 0.500000 0.500000 0.500000 0.500000 0.500000 0.000004 0.000004 0.000006 0.000009 0.000016 0.000026 0.000043 0.000069 0.000107 0.000160 0.000234 0.000335 0.000467 0.000640 0.000862 0.001142 0.001493 0.001928 0.002462 0.003113 0.003899 0.004844 0.005972 0.007311 0.008894 0.010756 0.012936 0.015478 0.018430 0.021844 0.025777 0.030290 0.035446 0.041314 0.047961 0.055456 0.063866 0.073252 0.083668 0.095154 0.107738 0.121425 0.136198 0.152010 0.168786 0.186419 0.204772 0.223677 0.242946 0.262371 0.281738 0.300829 0.319441 0.337384 0.354495 0.370640 0.385719 0.399664 0.412440 0.424040 0.434484 0.443812 0.452081 0.459358 0.465719 0.471243 0.476011 0.480100 0.483587 0.486543 0.489035 0.491123 0.492862 0.494301 0.495485 0.496453 0.497237 0.497869 0.498373 0.498773 0.499086 0.499328 0.499514 0.499655 0.499759 0.499836 0.499891 0.499930 0.499956 0.499974 0.499985 0.499992 0.499996 0.499998 0.500000 0.500000 0.500000 0.500000 0.500000 0.500000 0.000009 0.000010 0.000013 0.000018 0.000026 0.000040 0.000061 0.000091 0.000134 0.000195 0.000277 0.000387 0.000530 0.000716 0.000952 0.001249 0.001618 0.002074 0.002631 0.003307 0.004123 0.005099 0.006262 0.007640 0.009265 0.011172 0.013401 0.015995 0.019002 0.022474 0.026468 0.031044 0.036265 0.042198 0.048910 0.056469 0.064939 0.074381 0.084846 0.096373 0.108988 0.122694 0.137472 0.153276 0.170028 0.187622 0.205921 0.224760 0.243950 0.263288 0.282561 0.301556 0.320070 0.337919 0.354941 0.371004 0.386009 0.399888 0.412608 0.424162 0.434568 0.443866 0.452111 0.459370 0.465719 0.471234 0.475996 0.480082 0.483568 0.486524 0.489016 0.491105 0.492846 0.494287 0.495473 0.496442 0.497229 0.497862 0.498367 0.498768 0.499082 0.499325 0.499512 0.499653 0.499758 0.499835 0.499891 0.499930 0.499956 0.499974 0.499986 0.499993 0.499997 0.499999 0.500000 0.500000 0.500001 0.500001 0.500001 0.500001 0.000019 0.000021 0.000025 0.000032 0.000043 0.000061 0.000086 0.000122 0.000173 0.000242 0.000334 0.000455 0.000612 0.000813 0.001066 0.001382 0.001774 0.002255 0.002839 0.003546 0.004395 0.005409 0.006613 0.008035 0.009709 0.011668 0.013953 0.016606 0.019677 0.023215 0.027279 0.031926 0.037220 0.043226 0.050010 0.057639 0.066175 0.075677 0.086194 0.097764 0.110409 0.124133 0.138912 0.154700 0.171420 0.188965 0.207198 0.225955 0.245052 0.264286 0.283449 0.302331 0.320733 0.338473 0.355392 0.371361 0.386282 0.400088 0.412746 0.424248 0.434613 0.443879 0.452100 0.459343 0.465680 0.471188 0.475947 0.480032 0.483519 0.486478 0.488974 0.491068 0.492813 0.494258 0.495448 0.496421 0.497211 0.497847 0.498356 0.498758 0.499074 0.499319 0.499507 0.499650 0.499756 0.499834 0.499890 0.499930 0.499957 0.499975 0.499986 0.499994 0.499998 0.500000 0.500001 0.500002 0.500002 0.500002 0.500002 0.500002 0.000036 0.000039 0.000044 0.000054 0.000069 0.000091 0.000122 0.000166 0.000225 0.000304 0.000409 0.000543 0.000716 0.000935 0.001209 0.001548 0.001966 0.002475 0.003092 0.003834 0.004722 0.005779 0.007030 0.008503 0.010231 0.012250 0.014598 0.017319 0.020461 0.024074 0.028214 0.032941 0.038316 0.044402 0.051266 0.058971 0.067578 0.077145 0.087717 0.099331 0.112007 0.125745 0.140521 0.156288 0.172967 0.190451 0.208606 0.227268 0.246256 0.265371 0.284407 0.303161 0.321435 0.339051 0.355855 0.371719 0.386546 0.400271 0.412861 0.424307 0.434627 0.443859 0.452056 0.459281 0.465608 0.471111 0.475868 0.479955 0.483447 0.486411 0.488913 0.491013 0.492765 0.494217 0.495413 0.496391 0.497186 0.497827 0.498340 0.498746 0.499065 0.499312 0.499503 0.499647 0.499754 0.499833 0.499890 0.499931 0.499958 0.499977 0.499988 0.499996 0.500000 0.500002 0.500003 0.500004 0.500004 0.500004 0.500004 0.500004 0.000063 0.000067 0.000074 0.000087 0.000107 0.000134 0.000173 0.000225 0.000295 0.000386 0.000504 0.000656 0.000847 0.001087 0.001384 0.001750 0.002198 0.002740 0.003394 0.004177 0.005110 0.006215 0.007519 0.009050 0.010840 0.012925 0.015344 0.018140 0.021361 0.025057 0.029283 0.034097 0.039560 0.045734 0.052684 0.060471 0.069155 0.078790 0.089421 0.101080 0.113785 0.127535 0.142304 0.158042 0.174672 0.192085 0.210149 0.228703 0.247567 0.266547 0.285442 0.304051 0.322183 0.339662 0.356338 0.372085 0.386808 0.400444 0.412959 0.424344 0.434616 0.443812 0.451983 0.459192 0.465508 0.471007 0.475765 0.479856 0.483353 0.486325 0.488836 0.490945 0.492705 0.494166 0.495370 0.496356 0.497157 0.497804 0.498322 0.498732 0.499055 0.499306 0.499499 0.499645 0.499754 0.499835 0.499893 0.499934 0.499962 0.499981 0.499993 0.500000 0.500004 0.500006 0.500007 0.500008 0.500008 0.500008 0.500008 0.500009 0.000104 0.000109 0.000119 0.000135 0.000160 0.000195 0.000242 0.000304 0.000386 0.000492 0.000626 0.000796 0.001009 0.001273 0.001598 0.001995 0.002477 0.003057 0.003752 0.004581 0.005564 0.006724 0.008087 0.009683 0.011542 0.013701 0.016198 0.019078 0.022385 0.026172 0.030491 0.035401 0.040959 0.047229 0.054272 0.062147 0.070913 0.080619 0.091310 0.103015 0.115749 0.129507 0.144264 0.159967 0.176538 0.193871 0.211832 0.230264 0.248991 0.267822 0.286560 0.305010 0.322985 0.340314 0.356849 0.372468 0.387078 0.400617 0.413049 0.424368 0.434589 0.443746 0.451890 0.459081 0.465387 0.470883 0.475643 0.479739 0.483244 0.486226 0.488747 0.490867 0.492638 0.494108 0.495322 0.496317 0.497126 0.497780 0.498304 0.498720 0.499047 0.499301 0.499497 0.499646 0.499757 0.499839 0.499898 0.499940 0.499969 0.499988 0.500000 0.500007 0.500012 0.500014 0.500014 0.500015 0.500015 0.500015 0.500015 0.500016 0.000162 0.000169 0.000182 0.000203 0.000234 0.000277 0.000334 0.000409 0.000504 0.000626 0.000780 0.000972 0.001209 0.001501 0.001857 0.002289 0.002809 0.003432 0.004174 0.005054 0.006093 0.007314 0.008744 0.010410 0.012345 0.014586 0.017170 0.020140 0.023543 0.027428 0.031849 0.036861 0.042523 0.048895 0.056036 0.064005 0.072856 0.082638 0.093391 0.105142 0.117902 0.131667 0.146406 0.162068 0.178572 0.195813 0.213660 0.231957 0.250533 0.269200 0.287768 0.306044 0.323848 0.341014 0.357396 0.372876 0.387364 0.400797 0.413141 0.424389 0.434554 0.443669 0.451784 0.458956 0.465253 0.470746 0.475508 0.479611 0.483125 0.486118 0.488651 0.490783 0.492566 0.494049 0.495273 0.496278 0.497097 0.497758 0.498289 0.498711 0.499043 0.499302 0.499501 0.499652 0.499766 0.499849 0.499909 0.499952 0.499981 0.500000 0.500012 0.500019 0.500023 0.500025 0.500026 0.500026 0.500026 0.500026 0.500027 0.500029 0.000244 0.000252 0.000269 0.000296 0.000335 0.000387 0.000455 0.000543 0.000656 0.000796 0.000972 0.001188 0.001454 0.001777 0.002168 0.002639 0.003202 0.003872 0.004667 0.005604 0.006706 0.007994 0.009496 0.011241 0.013260 0.015589 0.018267 0.021336 0.024842 0.028834 0.033364 0.038487 0.044259 0.050740 0.057986 0.066053 0.074994 0.084854 0.095670 0.107466 0.120252 0.134019 0.148736 0.164348 0.180777 0.197917 0.215638 0.233788 0.252200 0.270690 0.289072 0.307162 0.324782 0.341771 0.357989 0.373320 0.387676 0.400996 0.413245 0.424415 0.434520 0.443591 0.451674 0.458826 0.465112 0.470603 0.475367 0.479478 0.483003 0.486007 0.488554 0.490700 0.492496 0.493992 0.495228 0.496244 0.497072 0.497742 0.498281 0.498709 0.499046 0.499309 0.499512 0.499666 0.499782 0.499866 0.499928 0.499971 0.500000 0.500019 0.500031 0.500038 0.500042 0.500043 0.500044 0.500044 0.500044 0.500044 0.500045 0.500048 0.000354 0.000365 0.000387 0.000420 0.000467 0.000530 0.000612 0.000716 0.000847 0.001009 0.001209 0.001454 0.001751 0.002109 0.002540 0.003054 0.003665 0.004389 0.005241 0.006242 0.007411 0.008774 0.010356 0.012186 0.014296 0.016722 0.019502 0.022678 0.026294 0.030401 0.035047 0.040288 0.046178 0.052773 0.060129 0.068299 0.077333 0.087273 0.098153 0.109994 0.122803 0.136568 0.151257 0.166814 0.183158 0.200187 0.217771 0.235763 0.253997 0.272297 0.290482 0.308372 0.325795 0.342596 0.358639 0.373811 0.388025 0.401223 0.413371 0.424458 0.434499 0.443521 0.451569 0.458700 0.464975 0.470462 0.475229 0.479347 0.482883 0.485901 0.488462 0.490622 0.492433 0.493942 0.495191 0.496219 0.497057 0.497737 0.498283 0.498718 0.499061 0.499328 0.499534 0.499691 0.499809 0.499895 0.499957 0.500000 0.500029 0.500048 0.500060 0.500066 0.500069 0.500070 0.500070 0.500070 0.500070 0.500071 0.500073 0.500076 0.000501 0.000515 0.000542 0.000583 0.000640 0.000716 0.000813 0.000935 0.001087 0.001273 0.001501 0.001777 0.002109 0.002507 0.002981 0.003544 0.004209 0.004990 0.005907 0.006977 0.008221 0.009665 0.011334 0.013256 0.015465 0.017996 0.020885 0.024175 0.027911 0.032139 0.036910 0.042275 0.048288 0.055004 0.062475 0.070752 0.079882 0.089903 0.100847 0.112732 0.125561 0.139321 0.153975 0.169469 0.185721 0.202628 0.220065 0.237887 0.255932 0.274030 0.292005 0.309682 0.326897 0.343499 0.359356 0.374359 0.388424 0.401492 0.413531 0.424530 0.434500 0.443470 0.451482 0.458588 0.464850 0.470332 0.475103 0.479228 0.482775 0.485806 0.488382 0.490557 0.492383 0.493906 0.495169 0.496208 0.497058 0.497747 0.498301 0.498742 0.499091 0.499363 0.499572 0.499731 0.499850 0.499938 0.500000 0.500043 0.500072 0.500091 0.500102 0.500107 0.500110 0.500110 0.500109 0.500109 0.500109 0.500110 0.500113 0.500117 0.000692 0.000710 0.000743 0.000793 0.000862 0.000952 0.001066 0.001209 0.001384 0.001598 0.001857 0.002168 0.002540 0.002981 0.003504 0.004120 0.004844 0.005690 0.006676 0.007821 0.009148 0.010679 0.012442 0.014465 0.016780 0.019423 0.022430 0.025842 0.029704 0.034061 0.038963 0.044459 0.050602 0.057443 0.065034 0.073421 0.082649 0.092753 0.103760 0.115687 0.128533 0.142282 0.156896 0.172319 0.188470 0.205247 0.222527 0.240167 0.258012 0.275896 0.293649 0.311103 0.328099 0.344491 0.360152 0.374976 0.388883 0.401814 0.413737 0.424642 0.434538 0.443451 0.451422 0.458502 0.464749 0.470225 0.474997 0.479129 0.482687 0.485731 0.488322 0.490512 0.492354 0.493891 0.495168 0.496219 0.497080 0.497778 0.498340 0.498789 0.499142 0.499418 0.499631 0.499792 0.499912 0.500000 0.500062 0.500105 0.500134 0.500151 0.500161 0.500165 0.500167 0.500166 0.500165 0.500164 0.500164 0.500166 0.500169 0.500176 0.000937 0.000959 0.001000 0.001060 0.001142 0.001249 0.001382 0.001548 0.001750 0.001995 0.002289 0.002639 0.003054 0.003544 0.004120 0.004795 0.005583 0.006499 0.007561 0.008789 0.010205 0.011831 0.013695 0.015826 0.018255 0.021017 0.024149 0.027691 0.031687 0.036180 0.041219 0.046853 0.053131 0.060102 0.067816 0.076316 0.085642 0.095829 0.106899 0.118865 0.131725 0.145457 0.160026 0.175371 0.191412 0.208050 0.225162 0.242611 0.260246 0.277905 0.295425 0.312645 0.329412 0.345584 0.361039 0.375676 0.389416 0.402202 0.414003 0.424808 0.434624 0.443476 0.451404 0.458454 0.464683 0.470152 0.474924 0.479062 0.482630 0.485687 0.488292 0.490498 0.492354 0.493906 0.495196 0.496260 0.497131 0.497839 0.498408 0.498863 0.499222 0.499501 0.499716 0.499879 0.500000 0.500088 0.500150 0.500191 0.500218 0.500234 0.500243 0.500246 0.500246 0.500244 0.500242 0.500241 0.500241 0.500243 0.500248 0.500256 0.001247 0.001275 0.001325 0.001397 0.001493 0.001618 0.001774 0.001966 0.002198 0.002477 0.002809 0.003202 0.003665 0.004209 0.004844 0.005583 0.006441 0.007433 0.008578 0.009895 0.011406 0.013135 0.015108 0.017354 0.019905 0.022794 0.026059 0.029738 0.033874 0.038510 0.043693 0.049469 0.055887 0.062993 0.070832 0.079446 0.088873 0.099142 0.110273 0.122275 0.135143 0.148854 0.163370 0.178629 0.194553 0.211042 0.227978 0.245226 0.262640 0.280064 0.297343 0.314319 0.330846 0.346789 0.362031 0.376472 0.390037 0.402671 0.414343 0.425042 0.434773 0.443560 0.451439 0.458457 0.464666 0.470125 0.474895 0.479038 0.482614 0.485684 0.488302 0.490523 0.492394 0.493960 0.495263 0.496339 0.497220 0.497937 0.498514 0.498974 0.499337 0.499619 0.499836 0.500000 0.500121 0.500208 0.500269 0.500309 0.500334 0.500348 0.500354 0.500355 0.500353 0.500350 0.500347 0.500345 0.500346 0.500349 0.500355 0.500366 0.001635 0.001670 0.001729 0.001814 0.001928 0.002074 0.002255 0.002475 0.002740 0.003057 0.003432 0.003872 0.004389 0.004990 0.005690 0.006499 0.007433 0.008509 0.009743 0.011156 0.012770 0.014608 0.016698 0.019066 0.021746 0.024770 0.028174 0.031998 0.036281 0.041066 0.046398 0.052322 0.058883 0.066126 0.074093 0.082823 0.092350 0.102699 0.113889 0.125923 0.138795 0.152479 0.166935 0.182102 0.197900 0.214232 0.230981 0.248019 0.265203 0.282384 0.299411 0.316135 0.332414 0.348120 0.363139 0.377377 0.390761 0.403236 0.414773 0.425359 0.435000 0.443718 0.451545 0.458525 0.464711 0.470158 0.474924 0.479070 0.482654 0.485734 0.488366 0.490600 0.492485 0.494065 0.495380 0.496466 0.497358 0.498082 0.498666 0.499131 0.499497 0.499782 0.500000 0.500164 0.500284 0.500369 0.500428 0.500466 0.500488 0.500499 0.500503 0.500501 0.500497 0.500493 0.500488 0.500486 0.500486 0.500490 0.500499 0.500512 0.002115 0.002158 0.002229 0.002329 0.002462 0.002631 0.002839 0.003092 0.003394 0.003752 0.004174 0.004667 0.005241 0.005907 0.006676 0.007561 0.008578 0.009743 0.011074 0.012590 0.014313 0.016269 0.018482 0.020981 0.023796 0.026962 0.030513 0.034487 0.038924 0.043864 0.049350 0.055426 0.062134 0.069516 0.077612 0.086458 0.096083 0.106511 0.117756 0.129819 0.142689 0.156340 0.170729 0.185795 0.201459 0.217625 0.234181 0.251000 0.267945 0.284875 0.301642 0.318105 0.334129 0.349590 0.364380 0.378408 0.391602 0.403913 0.415308 0.425777 0.435322 0.443965 0.451735 0.458676 0.464835 0.470266 0.475026 0.479173 0.482763 0.485852 0.488495 0.490742 0.492640 0.494232 0.495558 0.496655 0.497555 0.498287 0.498876 0.499345 0.499714 0.500000 0.500218 0.500381 0.500499 0.500582 0.500637 0.500672 0.500691 0.500698 0.500699 0.500694 0.500688 0.500681 0.500675 0.500672 0.500672 0.500678 0.500688 0.500705 0.002705 0.002757 0.002840 0.002958 0.003113 0.003307 0.003546 0.003834 0.004177 0.004581 0.005054 0.005604 0.006242 0.006977 0.007821 0.008789 0.009895 0.011156 0.012590 0.014216 0.016057 0.018136 0.020480 0.023117 0.026076 0.029390 0.033094 0.037225 0.041820 0.046920 0.052565 0.058795 0.065653 0.073176 0.081402 0.090363 0.100085 0.110588 0.121883 0.133969 0.146832 0.160442 0.174757 0.189715 0.205237 0.221230 0.237583 0.254176 0.270876 0.287546 0.304047 0.320242 0.336004 0.351214 0.365767 0.379578 0.392578 0.404717 0.415966 0.426311 0.435756 0.444319 0.452029 0.458925 0.465054 0.470467 0.475218 0.479363 0.482956 0.486054 0.488706 0.490964 0.492873 0.494477 0.495813 0.496919 0.497827 0.498564 0.499158 0.499630 0.500000 0.500286 0.500503 0.500663 0.500778 0.500858 0.500909 0.500939 0.500954 0.500957 0.500953 0.500945 0.500935 0.500926 0.500918 0.500914 0.500915 0.500922 0.500935 0.500955 0.003423 0.003485 0.003584 0.003721 0.003899 0.004123 0.004395 0.004722 0.005110 0.005564 0.006093 0.006706 0.007411 0.008221 0.009148 0.010205 0.011406 0.012770 0.014313 0.016057 0.018022 0.020233 0.022715 0.025495 0.028605 0.032074 0.035937 0.040230 0.044989 0.050253 0.056059 0.062448 0.069456 0.077121 0.085475 0.094549 0.104365 0.114940 0.126281 0.138384 0.151232 0.164796 0.179029 0.193870 0.209243 0.225054 0.241198 0.257557 0.274004 0.290408 0.306636 0.322558 0.338052 0.353004 0.367316 0.380905 0.393704 0.405667 0.416763 0.426980 0.436319 0.444798 0.452443 0.459291 0.465387 0.470778 0.475517 0.479657 0.483252 0.486355 0.489016 0.491283 0.493202 0.494815 0.496161 0.497274 0.498188 0.498930 0.499527 0.500000 0.500370 0.500655 0.500869 0.501026 0.501137 0.501211 0.501258 0.501282 0.501291 0.501289 0.501280 0.501268 0.501254 0.501242 0.501232 0.501227 0.501228 0.501236 0.501252 0.501277 0.004291 0.004365 0.004480 0.004639 0.004844 0.005099 0.005409 0.005779 0.006215 0.006724 0.007314 0.007994 0.008774 0.009665 0.010679 0.011831 0.013135 0.014608 0.016269 0.018136 0.020233 0.022582 0.025208 0.028140 0.031405 0.035036 0.039064 0.043523 0.048450 0.053881 0.059851 0.066399 0.073558 0.081364 0.089845 0.099029 0.108936 0.119577 0.130958 0.143071 0.155898 0.169407 0.183551 0.198268 0.213484 0.229106 0.245034 0.261152 0.277340 0.293473 0.309423 0.325066 0.340287 0.354977 0.369043 0.382404 0.394998 0.406780 0.417719 0.427802 0.437032 0.445422 0.452998 0.459794 0.465852 0.471218 0.475943 0.480076 0.483670 0.486776 0.489443 0.491717 0.493645 0.495266 0.496618 0.497738 0.498657 0.499402 0.500000 0.500473 0.500842 0.501124 0.501334 0.501486 0.501592 0.501660 0.501699 0.501717 0.501719 0.501711 0.501696 0.501678 0.501660 0.501644 0.501633 0.501627 0.501628 0.501637 0.501657 0.501687 0.005334 0.005421 0.005555 0.005737 0.005972 0.006262 0.006613 0.007030 0.007519 0.008087 0.008744 0.009496 0.010356 0.011334 0.012442 0.013695 0.015108 0.016698 0.018482 0.020480 0.022715 0.025208 0.027986 0.031074 0.034502 0.038298 0.042495 0.047126 0.052224 0.057823 0.063960 0.070666 0.077976 0.085921 0.094527 0.103817 0.113808 0.124510 0.135924 0.148041 0.160839 0.174285 0.188331 0.202917 0.217967 0.233394 0.249099 0.264971 0.280895 0.296751 0.312418 0.327780 0.342723 0.357148 0.370963 0.384093 0.396479 0.408074 0.418852 0.428798 0.437914 0.446211 0.453714 0.460454 0.466471 0.471810 0.476516 0.480640 0.484230 0.487337 0.490008 0.492288 0.494222 0.495849 0.497207 0.498332 0.499253 0.500000 0.500598 0.501070 0.501436 0.501713 0.501918 0.502063 0.502161 0.502222 0.502253 0.502263 0.502258 0.502242 0.502220 0.502196 0.502173 0.502153 0.502138 0.502131 0.502132 0.502144 0.502167 0.502203 0.006579 0.006681 0.006836 0.007045 0.007311 0.007640 0.008035 0.008503 0.009050 0.009683 0.010410 0.011241 0.012186 0.013256 0.014465 0.015826 0.017354 0.019066 0.020981 0.023117 0.025495 0.028140 0.031074 0.034325 0.037919 0.041886 0.046256 0.051060 0.056331 0.062101 0.068403 0.075268 0.082727 0.090807 0.099532 0.108924 0.118994 0.129750 0.141190 0.153301 0.166062 0.179437 0.193378 0.207824 0.222702 0.237927 0.253403 0.269023 0.284679 0.300255 0.315636 0.330712 0.345375 0.359531 0.373093 0.385990 0.398163 0.409570 0.420183 0.429988 0.438985 0.447186 0.454612 0.461294 0.467267 0.472574 0.477260 0.481371 0.484955 0.488061 0.490733 0.493017 0.494956 0.496587 0.497950 0.499077 0.500000 0.500747 0.501343 0.501812 0.502173 0.502445 0.502642 0.502780 0.502869 0.502920 0.502942 0.502943 0.502928 0.502903 0.502874 0.502843 0.502814 0.502789 0.502771 0.502763 0.502765 0.502778 0.502806 0.502848 0.008057 0.008177 0.008354 0.008592 0.008894 0.009265 0.009709 0.010231 0.010840 0.011542 0.012345 0.013260 0.014296 0.015465 0.016780 0.018255 0.019905 0.021746 0.023796 0.026076 0.028605 0.031405 0.034502 0.037919 0.041684 0.045825 0.050370 0.055350 0.060795 0.066735 0.073201 0.080222 0.087826 0.096037 0.104877 0.114363 0.124505 0.135307 0.146764 0.158862 0.171577 0.184872 0.198699 0.212998 0.227697 0.242714 0.257955 0.273320 0.288703 0.303995 0.319088 0.333876 0.348258 0.362143 0.375451 0.388111 0.400070 0.411285 0.421731 0.431392 0.440269 0.448370 0.455717 0.462336 0.468262 0.473535 0.478198 0.482294 0.485871 0.488973 0.491645 0.493931 0.495872 0.497507 0.498871 0.500000 0.500923 0.501668 0.502262 0.502726 0.503081 0.503345 0.503534 0.503661 0.503740 0.503781 0.503792 0.503781 0.503756 0.503722 0.503683 0.503644 0.503609 0.503579 0.503558 0.503547 0.503550 0.503566 0.503598 0.503648 0.009804 0.009943 0.010146 0.010416 0.010756 0.011172 0.011668 0.012250 0.012925 0.013701 0.014586 0.015589 0.016722 0.017996 0.019423 0.021017 0.022794 0.024770 0.026962 0.029390 0.032074 0.035036 0.038298 0.041886 0.045825 0.050141 0.054863 0.060019 0.065637 0.071746 0.078374 0.085547 0.093291 0.101628 0.110575 0.120148 0.130353 0.141192 0.152657 0.164732 0.177391 0.190597 0.204302 0.218446 0.232960 0.247762 0.262764 0.277869 0.292977 0.307985 0.322788 0.337287 0.351386 0.365000 0.378052 0.390475 0.402218 0.413241 0.423517 0.433033 0.441787 0.449786 0.457051 0.463605 0.469482 0.474719 0.479356 0.483435 0.487002 0.490099 0.492769 0.495056 0.496998 0.498634 0.500000 0.501129 0.502050 0.502793 0.503382 0.503839 0.504187 0.504442 0.504620 0.504737 0.504804 0.504832 0.504831 0.504809 0.504772 0.504727 0.504678 0.504630 0.504587 0.504552 0.504527 0.504515 0.504518 0.504537 0.504574 0.504632 0.011860 0.012020 0.012250 0.012554 0.012936 0.013401 0.013953 0.014598 0.015344 0.016198 0.017170 0.018267 0.019502 0.020885 0.022430 0.024149 0.026059 0.028174 0.030513 0.033094 0.035937 0.039064 0.042495 0.046256 0.050370 0.054863 0.059762 0.065092 0.070881 0.077156 0.083941 0.091261 0.099139 0.107593 0.116640 0.126290 0.136549 0.147414 0.158877 0.170919 0.183513 0.196621 0.210195 0.224177 0.238498 0.253081 0.267839 0.282682 0.297513 0.312234 0.326747 0.340957 0.354774 0.368118 0.380914 0.393101 0.404628 0.415457 0.425563 0.434932 0.443561 0.451458 0.458638 0.465127 0.470953 0.476151 0.480761 0.484822 0.488377 0.491467 0.494135 0.496421 0.498363 0.500000 0.501366 0.502493 0.503413 0.504151 0.504734 0.505185 0.505523 0.505768 0.505935 0.506040 0.506094 0.506109 0.506094 0.506058 0.506008 0.505951 0.505892 0.505834 0.505783 0.505742 0.505713 0.505699 0.505702 0.505725 0.505768 0.505834 0.014267 0.014450 0.014710 0.015052 0.015478 0.015995 0.016606 0.017319 0.018140 0.019078 0.020140 0.021336 0.022678 0.024175 0.025842 0.027691 0.029738 0.031998 0.034487 0.037225 0.040230 0.043523 0.047126 0.051060 0.055350 0.060019 0.065092 0.070595 0.076551 0.082985 0.089922 0.097382 0.105385 0.113948 0.123085 0.132802 0.143103 0.153985 0.165434 0.177432 0.189951 0.202951 0.216386 0.230197 0.244320 0.258678 0.273190 0.287767 0.302320 0.316754 0.330977 0.344900 0.358437 0.371511 0.384053 0.396005 0.407317 0.417954 0.427890 0.437112 0.445617 0.453409 0.460505 0.466926 0.472700 0.477860 0.482442 0.486484 0.490026 0.493109 0.495773 0.498058 0.500000 0.501637 0.503002 0.504128 0.505044 0.505778 0.506355 0.506798 0.507127 0.507360 0.507515 0.507606 0.507646 0.507646 0.507617 0.507567 0.507504 0.507434 0.507362 0.507295 0.507235 0.507187 0.507154 0.507138 0.507142 0.507169 0.507219 0.507295 0.017073 0.017281 0.017574 0.017956 0.018430 0.019002 0.019677 0.020461 0.021361 0.022385 0.023543 0.024842 0.026294 0.027911 0.029704 0.031687 0.033874 0.036281 0.038924 0.041820 0.044989 0.048450 0.052224 0.056331 0.060795 0.065637 0.070881 0.076551 0.082668 0.089256 0.096336 0.103927 0.112046 0.120707 0.129922 0.139695 0.150026 0.160911 0.172335 0.184278 0.196710 0.209593 0.222880 0.236514 0.250432 0.264561 0.278823 0.293134 0.307408 0.321556 0.335491 0.349128 0.362388 0.375195 0.387486 0.399205 0.410305 0.420751 0.430519 0.439596 0.447976 0.455665 0.462677 0.469031 0.474753 0.479874 0.484427 0.488450 0.491980 0.495056 0.497717 0.500000 0.501942 0.503579 0.504944 0.506069 0.506983 0.507712 0.508283 0.508717 0.509036 0.509258 0.509400 0.509477 0.509502 0.509488 0.509443 0.509378 0.509300 0.509217 0.509133 0.509055 0.508987 0.508932 0.508895 0.508877 0.508883 0.508913 0.508970 0.509057 0.020332 0.020567 0.020895 0.021319 0.021844 0.022474 0.023215 0.024074 0.025057 0.026172 0.027428 0.028834 0.030401 0.032139 0.034061 0.036180 0.038510 0.041066 0.043864 0.046920 0.050253 0.053881 0.057823 0.062101 0.066735 0.071746 0.077156 0.082985 0.089256 0.095989 0.103202 0.110912 0.119135 0.127882 0.137162 0.146977 0.157326 0.168201 0.179587 0.191463 0.203797 0.216553 0.229683 0.243133 0.256841 0.270738 0.284747 0.298791 0.312787 0.326651 0.340300 0.353655 0.366640 0.379185 0.391229 0.402718 0.413609 0.423868 0.433471 0.442404 0.450663 0.458250 0.465179 0.471467 0.477138 0.482221 0.486748 0.490753 0.494272 0.497342 0.500000 0.502283 0.504227 0.505865 0.507231 0.508355 0.509267 0.509992 0.510557 0.510984 0.511294 0.511505 0.511634 0.511698 0.511708 0.511678 0.511618 0.511538 0.511446 0.511349 0.511253 0.511164 0.511087 0.511026 0.510984 0.510965 0.510972 0.511007 0.511073 0.511171 0.024100 0.024365 0.024730 0.025199 0.025777 0.026468 0.027279 0.028214 0.029283 0.030491 0.031849 0.033364 0.035047 0.036910 0.038963 0.041219 0.043693 0.046398 0.049350 0.052565 0.056059 0.059851 0.063960 0.068403 0.073201 0.078374 0.083941 0.089922 0.096336 0.103202 0.110536 0.118353 0.126666 0.135485 0.144815 0.154658 0.165010 0.175861 0.187196 0.198992 0.211217 0.223836 0.236801 0.250060 0.263552 0.277213 0.290969 0.304745 0.318464 0.332047 0.345414 0.358491 0.371207 0.383495 0.395297 0.406562 0.417249 0.427325 0.436766 0.445560 0.453700 0.461189 0.468038 0.474262 0.479885 0.484933 0.489435 0.493423 0.496934 0.500000 0.502658 0.504944 0.506891 0.508533 0.509901 0.511027 0.511939 0.512663 0.513224 0.513645 0.513946 0.514148 0.514266 0.514316 0.514313 0.514269 0.514194 0.514099 0.513993 0.513882 0.513774 0.513675 0.513589 0.513522 0.513476 0.513457 0.513466 0.513506 0.513581 0.513692 0.028440 0.028736 0.029140 0.029657 0.030290 0.031044 0.031926 0.032941 0.034097 0.035401 0.036861 0.038487 0.040288 0.042275 0.044459 0.046853 0.049469 0.052322 0.055426 0.058795 0.062448 0.066399 0.070666 0.075268 0.080222 0.085547 0.091261 0.097382 0.103927 0.110912 0.118353 0.126262 0.134651 0.143525 0.152890 0.162744 0.173083 0.183896 0.195165 0.206868 0.218973 0.231444 0.244236 0.257297 0.270570 0.283991 0.297493 0.311003 0.324447 0.337752 0.350842 0.363647 0.376099 0.388136 0.399703 0.410750 0.421239 0.431138 0.440424 0.449083 0.457109 0.464505 0.471278 0.477443 0.483022 0.488038 0.492518 0.496495 0.500000 0.503066 0.505728 0.508020 0.509974 0.511623 0.512998 0.514129 0.515045 0.515770 0.516330 0.516748 0.517044 0.517237 0.517346 0.517386 0.517370 0.517313 0.517225 0.517117 0.516997 0.516875 0.516756 0.516647 0.516553 0.516481 0.516432 0.516413 0.516425 0.516472 0.516557 0.516682 0.033417 0.033746 0.034191 0.034757 0.035446 0.036265 0.037220 0.038316 0.039560 0.040959 0.042523 0.044259 0.046178 0.048288 0.050602 0.053131 0.055887 0.058883 0.062134 0.065653 0.069456 0.073558 0.077976 0.082727 0.087826 0.093291 0.099139 0.105385 0.112046 0.119135 0.126666 0.134651 0.143096 0.152009 0.161391 0.171240 0.181549 0.192307 0.203497 0.215093 0.227066 0.239379 0.251989 0.264847 0.277896 0.291077 0.304323 0.317569 0.330742 0.343773 0.356592 0.369131 0.381327 0.393121 0.404460 0.415298 0.425597 0.435326 0.444463 0.452995 0.460914 0.468221 0.474924 0.481036 0.486576 0.491565 0.496030 0.500000 0.503505 0.506577 0.509247 0.511550 0.513516 0.515178 0.516565 0.517706 0.518629 0.519360 0.519924 0.520343 0.520637 0.520827 0.520930 0.520962 0.520938 0.520871 0.520772 0.520653 0.520522 0.520389 0.520261 0.520144 0.520045 0.519968 0.519918 0.519900 0.519917 0.519972 0.520068 0.520208 0.039101 0.039464 0.039952 0.040566 0.041314 0.042198 0.043226 0.044402 0.045734 0.047229 0.048