# vtk DataFile Version 3.0
vtk output
ASCII
DATASET STRUCTURED_POINTS
DIMENSIONS 100 100 1
SPACING 0.409657 0.686556 0
ORIGIN 12.738000 3.646000 0
POINT_DATA 10000
SCALARS RTData float
LOOKUP_TABLE default
1987.591983 1985.924169 1984.068052 1982.016509 1979.763185 1977.302757 1974.631237 1971.746323 1968.647784 1965.337881 1961.821822 1958.108228 1954.209601 1950.142765 1945.929267 1941.595685 1937.173828 1932.700795 1928.218854 1923.775146 1919.421209 1915.212371 1911.207081 1907.466305 1904.053177 1901.033128 1898.474825 1896.452259 1895.048394 1894.360786 1894.509484 1895.647309 1897.971999 1901.738675 1907.269126 1914.951635 1925.221743 1938.512459 1955.165898 1975.312314 1998.747988 2024.869064 2052.718822 2081.162381 2109.134125 2135.862778 2161.000891 2184.645218 2207.278112 2229.659207 2252.659809 2276.985860 2302.726708 2328.802784 2352.760313 2371.620576 2383.672613 2389.579307 2391.603105 2391.983917 2391.999992 2391.966604 2391.664561 2390.785637 2389.244072 2387.343115 2385.827190 2385.849045 2388.867448 2396.479919 2410.190963 2431.117494 2459.646562 2495.108956 2535.617832 2578.265708 2619.746959 2657.187434 2688.775035 2713.919294 2732.990908 2746.891519 2756.675326 2763.312987 2767.587568 2770.075825 2771.171710 2771.124406 2770.076835 2768.098965 2765.214553 2761.421678 2756.708012 2751.061744 2744.478978 2736.968263 2728.552811 2719.270911 2709.174968 2698.329585 1985.001354 1983.221368 1981.237205 1979.040075 1976.621887 1973.975542 1971.095277 1967.977068 1964.619084 1961.022197 1957.190524 1953.132011 1948.859014 1944.388861 1939.744355 1934.954166 1930.053062 1925.081933 1920.087547 1915.122003 1910.241868 1905.507032 1900.979328 1896.721081 1892.793780 1889.257171 1886.169165 1883.587031 1881.570461 1880.187185 1879.521866 1879.688991 1880.850210 1883.235710 1887.167264 1893.076691 1901.506991 1913.075458 1928.373888 1947.792882 1971.298848 1998.257074 2027.430267 2057.218927 2086.058965 2112.785135 2136.815857 2158.156958 2177.317761 2195.228689 2213.189368 2232.803797 2255.761094 2283.176437 2314.234764 2344.867010 2369.036194 2383.346312 2389.473753 2391.319213 2391.653216 2391.431102 2390.602891 2388.969052 2386.661357 2384.307988 2383.011041 2384.218849 2389.535476 2400.501125 2418.374852 2443.921803 2477.166904 2517.102072 2561.477014 2606.957426 2649.838032 2687.071107 2717.024088 2739.568948 2755.624286 2766.551280 2773.700607 2778.184133 2780.814277 2782.130680 2782.457602 2781.963203 2780.709812 2778.693134 2775.871606 2772.187918 2767.584438 2762.013892 2755.446254 2747.872553 2739.306193 2729.782298 2719.355587 2708.097244 1982.724056 1980.862916 1978.783849 1976.476443 1973.930895 1971.138333 1968.091202 1964.783724 1961.212430 1957.376757 1953.279717 1948.928609 1944.335757 1939.519228 1934.503492 1929.319952 1924.007262 1918.611371 1913.185182 1907.787780 1902.483163 1897.338487 1892.421884 1887.799984 1883.535392 1879.684448 1876.295728 1873.409850 1871.061291 1869.283061 1868.115287 1867.618990 1867.896497 1869.119811 1871.567034 1875.663352 1882.014592 1891.406108 1904.720373 1922.721281 1945.700707 1973.110699 2003.438142 2034.520720 2064.185402 2090.818858 2113.582618 2132.315359 2147.344039 2159.365821 2169.432646 2179.009148 2190.086992 2205.324502 2227.933323 2260.303599 2300.153906 2337.865894 2363.679053 2376.767928 2381.880864 2382.952875 2381.905179 2379.742166 2377.409803 2376.102717 2377.241758 2382.287680 2392.508425 2408.818505 2431.757099 2461.535515 2497.969329 2540.159759 2586.051707 2632.324133 2675.060700 2711.025470 2738.686081 2758.311564 2771.312979 2779.446158 2784.285538 2787.016942 2788.430196 2788.993392 2788.941427 2788.352176 2787.204594 2785.420930 2782.896896 2779.523134 2775.200310 2769.849330 2763.417658 2755.882375 2747.250566 2737.557551 2726.863526 2715.249139 1980.777521 1978.870049 1976.733587 1974.356192 1971.726419 1968.833658 1965.668566 1962.223575 1958.493499 1954.476236 1950.173558 1945.591981 1940.743679 1935.647406 1930.329361 1924.823910 1919.174070 1913.431630 1907.656790 1901.917205 1896.286333 1890.841074 1885.658722 1880.813388 1876.372148 1872.391319 1868.913356 1865.965020 1863.557579 1861.689946 1860.355960 1859.557368 1859.324721 1859.749108 1861.027982 1863.526634 1867.849459 1874.895036 1885.830306 1901.874815 1923.806042 1951.299563 1982.563378 2014.761044 2045.071170 2071.571580 2093.397116 2110.381425 2122.688279 2130.694067 2135.057989 2136.788746 2137.210042 2137.907384 2140.852317 2148.886108 2166.324847 2197.648474 2241.004410 2284.011170 2315.242474 2333.688638 2343.710305 2349.619333 2354.595700 2360.998290 2370.555443 2384.319852 2402.651861 2425.441379 2452.518627 2483.980788 2520.150882 2561.047892 2605.535593 2650.742877 2692.551383 2727.219474 2752.951325 2770.183599 2780.715281 2786.646237 2789.739564 2791.229002 2791.866516 2792.043690 2791.908609 2791.455723 2790.589316 2789.167190 2787.030868 2784.026712 2780.020629 2774.907894 2768.618949 2761.121779 2752.421369 2742.556819 2731.596728 2719.633484 1979.170416 1977.254493 1975.101742 1972.698845 1970.032833 1967.091447 1963.863585 1960.339856 1956.513255 1952.379951 1947.940202 1943.199384 1938.169096 1932.868308 1927.324466 1921.574477 1915.665407 1909.654781 1903.610278 1897.608675 1891.733897 1886.074089 1880.717738 1875.748996 1871.242488 1867.258066 1863.836102 1860.993995 1858.724720 1856.998304 1855.767384 1854.978440 1854.591206 1854.610252 1855.134786 1856.434228 1859.054040 1863.937469 1872.493447 1886.436844 1907.158530 1934.638562 1966.668816 1999.495015 2029.663243 2055.353111 2076.241379 2092.585559 2104.536083 2112.092771 2115.527905 2115.738584 2114.114294 2112.049337 2110.543611 2110.209075 2111.856307 2117.702709 2132.234138 2159.623722 2197.467609 2236.854279 2271.051238 2299.398491 2324.455657 2348.924160 2374.313011 2400.798607 2427.794833 2454.783915 2481.933947 2510.269769 2541.404781 2576.848182 2616.897494 2659.533403 2700.428110 2734.822921 2760.001838 2776.146722 2785.298301 2789.892570 2791.909157 2792.658808 2792.881180 2792.914330 2792.840449 2792.589386 2792.007418 2790.902530 2789.074872 2786.337762 2782.532196 2777.536375 2771.271038 2763.701137 2754.834368 2744.717181 2733.428952 2721.075073 1977.901432 1976.017012 1973.891644 1971.510860 1968.860366 1965.926403 1962.696198 1959.158543 1955.304506 1951.128294 1946.628261 1941.808077 1936.678016 1931.256324 1925.570595 1919.659029 1913.571431 1907.369756 1901.127971 1894.931027 1888.872733 1883.052399 1877.570248 1872.521740 1867.991143 1864.044868 1860.725254 1858.045579 1855.987121 1854.499170 1853.502976 1852.901103 1852.594594 1852.512435 1852.661300 1853.208661 1854.616011 1857.828196 1864.461515 1876.754272 1896.796926 1924.802300 1957.684000 1990.263218 2018.547609 2041.495768 2060.124478 2075.782107 2088.973909 2099.114848 2105.338657 2107.752728 2107.718271 2106.893303 2106.284453 2106.079851 2106.133161 2106.865332 2110.353293 2120.776096 2142.675272 2177.287323 2221.207341 2269.376398 2317.934331 2364.270647 2406.286467 2442.495501 2472.524425 2497.235459 2518.443760 2538.575313 2560.404787 2586.673582 2619.202632 2657.414943 2697.337070 2732.977346 2759.802281 2776.933566 2786.319403 2790.720743 2792.426521 2792.918876 2792.997615 2792.999881 2792.980715 2792.834983 2792.374616 2791.377464 2789.619195 2786.894808 2783.033206 2777.906468 2771.434654 2763.586724 2754.378122 2743.865756 2732.141128 2719.322450 1976.958375 1975.146266 1973.093215 1970.783911 1968.203028 1965.335554 1962.167231 1958.685126 1954.878344 1950.738922 1946.262893 1941.451542 1936.312842 1930.863002 1925.128089 1919.145579 1912.965671 1906.652157 1900.282570 1893.947329 1887.747638 1881.791919 1876.190749 1871.050430 1866.465541 1862.511079 1859.234955 1856.651711 1854.738363 1853.433230 1852.638669 1852.228965 1852.065668 1852.025022 1852.046885 1852.223019 1852.954055 1855.206345 1860.836227 1872.676274 1893.533737 1923.431913 1957.412656 1988.310650 2012.162454 2029.521677 2043.123215 2055.755263 2069.156880 2083.126327 2095.213745 2102.748892 2105.702965 2106.190827 2106.064287 2106.003848 2106.011654 2106.300918 2108.267359 2115.372842 2133.267908 2167.935234 2221.566365 2289.033156 2359.313424 2421.578247 2470.184771 2504.942724 2528.593460 2544.573440 2556.062011 2565.925058 2576.993226 2592.259868 2614.568495 2645.311939 2682.408187 2719.790159 2750.624189 2771.588764 2783.589003 2789.460776 2791.899495 2792.724658 2792.933308 2792.957924 2792.892071 2792.641817 2792.019096 2790.798753 2788.754364 2785.681492 2781.412791 2775.827149 2768.853968 2760.473343 2750.712840 2739.641683 2727.363197 2714.006365 1976.317710 1974.618142 1972.682029 1970.493625 1968.036967 1965.296170 1962.255818 1958.901496 1955.220468 1951.202544 1946.841135 1942.134542 1937.087443 1931.712565 1926.032483 1920.081411 1913.906835 1907.570737 1901.150123 1894.736523 1888.434139 1882.356389 1876.620719 1871.341796 1866.623438 1862.549908 1859.177440 1856.526952 1854.578932 1853.271406 1852.501919 1852.134756 1852.015797 1852.000140 1852.003716 1852.101978 1852.718133 1854.957350 1861.069522 1874.593285 1898.746408 1932.084599 1966.389716 1993.121322 2010.125677 2020.130238 2026.808777 2033.240839 2042.016170 2055.223067 2072.730267 2089.773576 2100.573026 2104.916989 2106.042038 2106.267372 2106.544002 2107.629779 2111.382672 2122.096856 2147.395023 2196.351868 2271.701126 2361.106532 2442.962022 2503.463202 2542.077460 2564.617523 2577.008391 2583.412694 2586.530681 2588.362866 2590.870371 2596.411104 2607.841275 2627.931126 2657.589727 2693.539099 2728.576464 2756.072214 2773.922715 2783.877697 2788.798119 2790.988474 2791.849916 2792.075271 2791.911758 2791.355417 2790.273633 2788.479007 2785.774159 2781.979432 2776.949966 2770.585471 2762.834486 2753.694269 2743.207243 2731.454932 2718.550282 2704.629234 1975.944691 1974.395713 1972.619054 1970.599024 1968.319536 1965.764349 1962.917395 1959.763233 1956.287654 1952.478461 1948.326457 1943.826662 1938.979771 1933.793837 1928.286131 1922.485091 1916.432190 1910.183502 1903.810660 1897.400847 1891.055448 1884.887042 1879.014543 1873.556525 1868.623058 1864.306686 1860.673451 1857.755030 1855.543058 1853.986715 1852.994682 1852.443062 1852.192353 1852.120220 1852.184792 1852.549035 1853.822002 1857.483496 1866.408511 1884.657984 1914.395915 1950.344841 1981.316236 2000.829785 2010.419224 2014.336018 2015.913588 2017.185918 2019.638652 2025.138201 2036.507853 2055.610545 2077.760495 2094.021576 2102.334127 2106.257725 2109.210547 2113.937240 2124.218596 2146.724173 2191.427091 2266.269169 2364.094724 2459.101393 2528.657744 2569.800521 2591.049139 2601.074173 2605.240760 2606.230589 2605.289165 2603.206861 2600.993594 2600.233793 2603.136541 2612.376482 2630.474025 2658.070370 2691.732722 2724.522683 2750.444059 2767.752412 2777.985903 2783.532806 2786.288331 2787.404851 2787.459650 2786.669210 2785.048281 2782.511723 2778.936835 2774.201144 2768.205010 2760.884350 2752.216486 2742.220973 2730.956710 2718.516485 2705.019909 2690.605646 1975.794187 1974.430002 1972.851285 1971.042955 1968.989408 1966.674698 1964.082783 1961.197894 1958.005018 1954.490555 1950.643169 1946.454857 1941.922269 1937.048278 1931.843772 1926.329613 1920.538613 1914.517357 1908.327558 1902.046607 1895.766927 1889.593743 1883.641016 1878.025484 1872.859063 1868.240202 1864.245115 1860.920036 1858.275788 1856.286015 1854.890734 1854.007711 1853.556520 1853.505221 1853.959958 1855.335119 1858.657301 1866.001712 1880.678537 1905.740400 1939.392524 1972.315828 1995.196879 2006.728972 2010.885846 2011.671374 2011.425261 2011.169585 2011.318041 2012.384917 2015.814350 2024.630798 2041.672592 2064.143867 2084.481894 2099.588603 2112.204032 2127.333164 2151.504804 2193.411129 2261.655122 2355.356645 2454.649626 2532.711900 2579.468288 2602.167342 2611.589588 2614.991441 2615.891498 2615.507502 2613.896723 2610.811951 2606.569289 2602.482429 2600.372988 2602.077221 2609.589980 2624.932784 2648.770532 2678.471507 2708.403711 2733.358568 2751.287533 2762.861319 2769.717492 2773.334692 2774.711493 2774.418494 2772.734690 2769.766013 2765.528305 2760.000952 2753.160107 2744.998248 2735.534438 2724.818126 2712.928448 2699.970484 2686.069663 2671.365295 1975.812306 1974.661669 1973.313454 1971.753759 1969.968113 1967.941594 1965.659006 1963.105139 1960.265136 1957.124993 1953.672227 1949.896746 1945.791945 1941.356047 1936.593705 1931.517799 1926.151380 1920.529579 1914.701263 1908.730126 1902.694832 1896.687815 1890.812441 1885.178365 1879.895256 1875.065402 1870.776136 1867.093369 1864.057821 1861.685888 1859.977737 1858.936698 1858.607156 1859.143904 1860.933932 1864.793770 1872.221951 1885.477142 1906.740781 1935.486485 1965.936088 1990.012693 2004.018218 2009.820939 2011.125340 2010.792882 2010.295867 2010.065830 2010.029200 2010.165345 2011.169294 2015.188243 2025.465274 2043.050770 2064.426938 2085.909809 2108.011060 2135.021831 2173.778487 2232.317050 2314.995367 2413.097749 2503.239121 2565.493145 2598.472455 2612.269699 2616.776079 2617.820014 2617.943751 2617.755342 2616.582619 2612.990106 2606.900927 2600.810010 2596.754122 2595.264242 2596.873516 2602.871371 2614.940638 2633.858512 2658.002988 2683.444557 2706.108284 2723.761749 2736.145533 2744.023925 2748.359091 2749.940518 2749.312041 2746.814805 2742.653303 2736.952202 2729.797483 2721.263542 2711.429484 2700.387518 2688.245777 2675.127363 2661.167030 2646.506632 1975.938790 1975.023653 1973.930913 1972.648363 1971.163280 1969.462492 1967.532495 1965.359624 1962.930307 1960.231414 1957.250737 1953.977638 1950.403880 1946.524681 1942.340016 1937.856147 1933.087359 1928.057805 1922.803304 1917.372856 1911.829569 1906.250636 1900.726060 1895.355902 1890.246132 1885.503522 1881.230505 1877.521432 1874.462225 1872.136004 1870.638195 1870.105980 1870.768845 1873.027432 1877.559566 1885.413054 1897.932812 1916.187838 1939.641949 1964.915820 1986.831213 2001.757781 2009.487037 2012.065871 2011.942656 2011.005630 2010.293206 2010.034866 2010.005318 2010.103218 2011.121559 2015.595552 2026.751588 2043.697975 2061.449815 2078.197217 2096.883636 2123.062527 2164.142422 2228.032540 2317.206036 2419.294811 2509.132378 2569.004759 2600.044993 2612.883202 2617.013946 2617.909224 2617.988424 2617.779381 2615.502713 2607.671525 2598.659485 2593.725949 2591.451038 2590.342723 2590.165463 2591.576295 2595.866140 2604.477864 2618.102054 2635.814704 2655.174786 2673.405703 2688.577268 2699.926218 2707.509897 2711.746867 2713.119548 2712.046988 2708.856796 2703.798508 2697.067785 2688.828746 2679.230505 2668.417626 2656.535484 2643.731835 2630.155863 2615.955760 1976.110076 1975.444673 1974.623604 1973.636757 1972.473642 1971.123441 1969.575083 1967.817353 1965.839062 1963.629275 1961.177636 1958.474808 1955.513061 1952.287027 1948.794680 1945.038528 1941.027049 1936.776322 1932.311804 1927.670098 1922.900527 1918.066263 1913.244750 1908.527211 1904.017253 1899.828881 1896.084727 1892.915877 1890.465264 1888.897113 1888.415141 1889.291565 1891.905639 1896.780166 1904.579065 1915.983195 1931.326400 1949.981602 1969.898790 1988.062805 2001.948827 2010.697233 2014.981039 2016.113283 2015.374017 2013.829812 2012.348343 2011.477036 2011.414381 2012.639844 2017.151103 2028.581708 2046.074678 2061.141702 2070.394720 2077.056704 2085.479355 2100.962834 2131.337709 2186.688096 2272.968312 2379.539468 2478.604920 2548.167238 2586.979718 2605.199078 2612.620555 2615.095656 2614.926509 2610.662096 2599.084792 2590.828393 2588.897010 2588.553220 2588.395365 2588.042959 2587.432242 2586.871654 2587.109087 2589.229096 2594.286874 2602.747597 2614.074899 2626.847750 2639.355845 2650.206731 2658.587905 2664.204258 2667.089168 2667.434484 2665.484479 2661.484652 2655.663731 2648.231607 2639.382970 2629.301591 2618.163296 2606.137182 2593.385378 2580.061871 1976.262768 1975.853287 1975.310818 1974.627547 1973.795498 1972.806574 1971.652620 1970.325509 1968.817258 1967.120181 1965.227112 1963.131693 1960.828760 1958.314869 1955.588970 1952.653273 1949.514346 1946.184450 1942.683112 1939.038925 1935.291472 1931.493282 1927.711651 1924.030191 1920.550048 1917.390904 1914.692187 1912.615271 1911.347678 1911.110167 1912.166409 1914.831818 1919.471398 1926.465185 1936.107327 1948.409096 1962.836650 1978.151298 1992.613517 2004.605810 2013.278888 2018.725853 2021.656811 2022.941645 2023.311066 2023.261002 2023.105946 2023.184566 2024.303921 2028.481704 2039.226486 2056.160759 2069.176737 2074.422999 2076.059893 2077.005185 2079.147947 2085.648872 2102.921245 2141.553705 2212.145929 2312.160766 2417.548160 2500.948341 2553.613405 2582.022914 2595.359342 2599.690824 2597.624186 2591.941049 2588.576651 2588.019429 2588.000477 2588.000548 2587.912062 2587.464407 2586.389282 2584.654811 2582.587513 2580.857568 2580.315483 2581.695774 2585.294835 2590.805044 2597.418125 2604.122220 2610.001025 2614.399813 2616.949446 2617.510243 2616.096375 2612.812574 2607.811209 2601.266602 2593.360792 2584.275829 2574.189383 2563.271886 2551.684385 2539.576800 1976.337142 1976.182093 1975.916217 1975.533983 1975.029935 1974.398756 1973.635331 1972.734832 1971.692822 1970.505372 1969.169231 1967.682016 1966.042485 1964.250874 1962.309350 1960.222594 1957.998571 1955.649507 1953.193126 1950.654177 1948.066268 1945.473997 1942.935336 1940.524189 1938.333006 1936.475345 1935.088245 1934.334257 1934.402747 1935.509396 1937.891312 1941.792419 1947.430226 1954.933082 1964.243151 1975.004467 1986.498563 1997.719349 2007.628053 2015.486946 2021.070055 2024.631506 2026.696442 2027.825222 2028.450783 2028.818607 2029.037990 2029.228237 2029.817668 2032.937104 2045.790141 2066.601798 2075.530434 2076.885790 2076.979750 2076.991551 2077.407099 2080.031352 2089.500561 2114.484455 2165.809116 2247.234537 2344.873888 2434.333912 2500.428862 2542.590862 2566.925082 2579.627995 2585.255456 2587.212494 2587.792389 2587.952771 2587.975201 2587.908890 2587.578112 2586.635239 2584.736573 2581.724377 2577.732677 2573.194687 2568.754306 2565.097055 2562.745073 2561.894008 2562.365084 2563.687280 2565.254857 2566.480904 2566.895665 2566.182070 2564.167505 2560.795307 2556.092491 2550.141676 2543.059502 2534.981037 2526.048863 2516.405527 2506.188370 2495.526069 1976.280265 1976.371512 1976.372455 1976.279601 1976.089758 1975.800117 1975.408330 1974.912604 1974.311806 1973.605583 1972.794487 1971.880137 1970.865398 1969.754606 1968.553844 1967.271300 1965.917727 1964.507042 1963.057109 1961.590757 1960.137073 1958.733011 1957.425347 1956.272932 1955.349150 1954.744360 1954.567900 1954.948991 1956.035421 1957.988272 1960.970094 1965.123056 1970.533667 1977.183491 1984.893665 1993.285411 2001.791710 2009.748583 2016.554003 2021.827868 2025.490589 2027.727042 2028.873552 2029.296890 2029.315826 2029.176090 2029.048716 2029.004833 2029.024460 2029.809065 2038.450295 2063.906008 2075.648054 2076.947471 2076.995443 2076.987330 2077.223694 2079.034421 2085.848805 2103.961368 2141.343967 2202.242427 2280.536744 2361.492595 2431.982907 2486.639433 2526.049080 2552.895161 2569.859430 2579.399147 2584.011195 2585.883656 2586.398976 2586.112977 2585.030675 2582.903795 2579.468320 2574.606792 2568.430025 2561.282938 2553.686202 2546.229912 2539.444505 2533.685450 2529.068756 2525.475665 2522.615511 2520.114900 2517.600164 2514.753704 2511.340769 2507.213244 2502.299773 2496.590097 2490.118605 2482.949667 2475.165674 2466.857853 2458.119531 2449.041431 1976.048310 1976.372646 1976.624710 1976.802628 1976.904997 1976.930974 1976.880365 1976.753732 1976.552497 1976.279046 1975.936851 1975.530579 1975.066216 1974.551187 1973.994493 1973.406863 1972.800933 1972.191478 1971.595719 1971.033740 1970.529061 1970.109418 1969.807791 1969.663724 1969.724905 1970.048910 1970.704828 1971.774216 1973.350420 1975.534787 1978.427689 1982.112070 1986.627900 1991.938760 1997.897615 2004.226783 2010.531988 2016.363422 2021.313804 2025.116421 2027.699271 2029.175470 2029.785539 2029.824945 2029.581958 2029.291330 2029.097361 2029.030066 2029.079808 2029.896526 2036.049255 2055.093947 2070.915810 2075.506258 2076.464007 2076.787044 2077.494146 2079.939100 2086.720938 2101.881782 2129.707056 2171.861033 2225.331822 2284.205670 2343.242408 2399.166321 2449.686067 2492.539871 2525.767508 2548.792289 2562.922513 2570.549343 2573.911324 2574.462009 2572.905496 2569.494478 2564.313775 2557.466324 2549.165407 2539.756761 2529.691928 2519.469615 2509.561369 2500.340478 2492.032958 2484.702711 2478.270920 2472.558692 2467.337211 2462.372050 2457.454398 2452.418003 2447.144388 2441.560227 2435.630509 2429.350163 2422.735824 2415.818613 2408.638256 2401.238584 1975.607803 1976.148820 1976.632622 1977.058437 1977.426046 1977.735870 1977.989062 1978.187602 1978.334388 1978.433324 1978.489399 1978.508754 1978.498724 1978.467865 1978.425946 1978.383917 1978.353847 1978.348841 1978.382964 1978.471184 1978.629389 1978.874543 1979.225055 1979.701457 1980.327479 1981.131581 1982.148890 1983.423302 1985.009178 1986.971505 1989.382753 1992.313984 1995.817751 1999.901954 2004.498254 2009.435968 2014.438902 2019.160618 2023.257274 2026.472976 2028.700264 2029.991361 2030.523355 2030.539565 2030.290101 2029.986336 2029.781090 2029.802334 2030.331514 2032.354167 2038.400738 2050.376329 2063.001620 2070.478245 2073.919158 2075.847515 2077.930854 2081.604671 2088.545911 2100.439029 2118.058879 2140.603043 2166.582433 2195.578769 2228.792384 2267.983012 2313.745869 2363.994690 2413.751594 2457.137674 2490.336983 2512.839659 2526.351556 2533.113951 2534.962422 2533.145326 2528.473637 2521.516309 2512.742925 2502.603410 2491.557843 2480.070780 2468.583244 2457.475799 2447.035886 2437.439525 2428.751540 2420.942108 2413.913125 2407.526984 2401.631991 2396.081371 2390.745252 2385.516570 2380.312498 2375.073008 2369.757897 2364.343236 2358.817818 2353.179958 1974.935690 1975.675671 1976.370424 1977.019748 1977.623984 1978.184094 1978.701732 1979.179318 1979.620092 1980.028170 1980.408564 1980.767182 1981.110795 1981.446951 1981.783845 1982.130139 1982.494721 1982.886437 1983.313799 1983.784724 1984.306359 1984.885077 1985.526746 1986.237400 1987.024410 1987.898267 1988.875019 1989.979257 1991.247407 1992.730645 1994.496185 1996.624727 1999.200842 2002.292706 2005.919845 2010.014510 2014.393489 2018.764766 2022.784015 2026.146233 2028.669677 2030.331937 2031.250118 2031.627768 2031.698997 2031.692151 2031.828318 2032.371982 2033.752140 2036.708292 2042.131775 2050.032057 2058.559785 2065.521622 2070.407272 2073.998317 2077.299611 2081.082449 2085.657200 2090.643581 2095.143595 2098.643244 2101.851135 2106.586628 2115.206411 2130.293040 2154.442799 2189.513955 2235.051887 2286.911701 2338.133378 2382.223130 2415.860216 2438.936778 2453.032084 2460.073267 2461.723313 2459.263450 2453.670090 2445.724630 2436.097095 2425.391115 2414.155250 2402.872312 2391.940118 2381.655366 2372.207853 2363.686812 2356.096940 2349.379614 2343.434843 2338.140753 2333.368986 2328.995619 2324.908069 2321.008756 2317.216418 2313.465836 2309.706602 2305.901378 1974.018364 1974.939936 1975.825435 1976.674759 1977.488268 1978.266838 1979.011897 1979.725469 1980.410182 1981.069271 1981.706545 1982.326314 1982.933278 1983.532366 1984.128519 1984.726430 1985.330243 1985.943252 1986.567617 1987.204180 1987.852432 1988.510730 1989.176838 1989.848865 1990.526647 1991.213593 1991.918969 1992.660623 1993.468119 1994.386218 1995.478375 1996.829215 1998.543513 2000.737042 2003.512947 2006.919561 2010.896759 2015.237876 2019.606116 2023.621670 2026.981974 2029.546457 2031.347236 2032.543142 2033.360085 2034.049941 2034.879637 2036.146426 2038.196510 2041.388177 2045.916384 2051.534243 2057.493910 2062.954856 2067.454155 2070.923644 2073.353607 2074.455961 2073.604123 2070.290847 2064.884511 2058.749034 2053.457859 2050.120232 2049.434353 2052.155879 2059.582219 2073.780568 2097.181903 2131.195826 2174.358287 2221.805181 2267.237114 2305.765574 2335.212405 2355.594469 2368.029593 2373.937351 2374.671382 2371.420807 2365.220503 2356.981254 2347.505539 2337.484848 2327.487450 2317.947804 2309.165214 2301.313799 2294.461464 2288.593598 2283.637298 2279.483164 2276.003140 2273.064017 2270.536919 2268.303409 2266.258965 2264.314488 2262.396445 2260.446101 1972.849975 1973.937334 1974.995401 1976.023820 1977.022572 1977.991987 1978.932760 1979.845942 1980.732914 1981.595338 1982.435067 1983.254031 1984.054071 1984.836745 1985.603099 1986.353417 1987.086995 1987.801958 1988.495180 1989.162373 1989.798387 1990.397781 1990.955661 1991.468763 1991.936704 1992.363313 1992.757976 1993.137034 1993.525436 1993.959038 1994.488046 1995.181892 1996.134930 1997.470145 1999.334247 2001.873261 2005.178909 2009.213078 2013.752128 2018.412498 2022.774220 2026.531235 2029.572211 2031.965750 2033.896037 2035.601731 2037.338999 2039.361358 2041.895464 2045.091446 2048.946880 2053.248438 2057.598791 2061.529184 2064.592134 2066.338999 2066.229235 2063.670915 2058.415550 2051.148587 2043.482666 2037.019196 2032.504972 2029.867999 2028.724548 2028.845309 2030.500068 2034.724825 2043.407799 2058.899231 2082.905129 2115.045447 2152.257433 2189.870440 2223.559739 2250.648216 2270.222672 2282.589884 2288.687024 2289.691968 2286.819647 2281.222817 2273.936741 2265.841977 2257.641156 2249.852306 2242.819180 2236.734762 2231.671782 2227.614285 2224.486162 2222.174633 2220.548277 2219.470148 2218.806823 2218.434301 2218.241523 2218.132141 2218.025037 2217.853953 1971.430438 1972.670075 1973.885382 1975.075530 1976.239875 1977.377951 1978.489443 1979.574153 1980.631933 1981.662597 1982.665804 1983.640917 1984.586826 1985.501775 1986.383181 1987.227491 1988.030118 1988.785491 1989.487274 1990.128803 1990.703734 1991.206891 1991.635223 1991.988735 1992.271245 1992.490815 1992.659820 1992.794783 1992.916305 1993.049679 1993.227003 1993.491690 1993.906090 1994.561893 1995.590212 1997.162590 1999.466766 2002.640575 2006.672132 2011.327843 2016.194221 2020.839355 2024.980283 2028.545138 2031.631057 2034.426554 2037.147567 2039.994519 2043.117393 2046.578247 2050.315393 2054.127805 2057.694533 2060.616198 2062.440643 2062.652867 2060.686628 2056.123540 2049.209939 2041.297337 2034.308706 2029.463808 2026.779440 2025.598554 2025.213062 2025.176876 2025.456042 2026.561341 2029.646082 2036.415475 2048.650270 2067.328668 2091.768992 2119.494372 2147.076803 2171.377240 2190.376170 2203.326881 2210.478212 2212.689757 2211.106327 2206.926099 2201.248823 2194.987612 2188.832444 2183.253445 2178.529840 2174.790561 2172.055671 2170.272286 2169.342663 2169.144675 2169.546044 2170.413917 2171.621162 2173.050384 2174.596340 2176.167215 2177.685037 2179.085464 1969.763586 1971.144565 1972.504889 1973.843148 1975.157977 1976.448026 1977.711912 1978.948158 1980.155100 1981.330783 1982.472828 1983.578292 1984.643516 1985.663997 1986.634306 1987.548087 1988.398193 1989.176989 1989.876876 1990.491016 1991.014233 1991.443972 1991.781167 1992.030821 1992.202099 1992.307871 1992.363701 1992.386530 1992.393445 1992.401106 1992.426586 1992.490503 1992.623452 1992.876629 1993.336458 1994.139638 1995.477221 1997.565623 2000.562687 2004.446452 2008.948429 2013.640312 2018.135166 2022.241721 2025.981022 2029.512453 2033.047537 2036.783562 2040.851717 2045.269926 2049.905858 2054.471799 2058.568554 2061.760017 2063.620651 2063.707405 2061.494281 2056.474330 2048.759549 2039.926198 2032.504244 2027.922014 2025.813847 2025.124984 2025.003474 2025.000141 2025.046394 2025.460171 2026.976611 2030.701013 2037.862781 2049.325073 2065.008808 2083.598425 2102.827730 2120.235182 2133.931013 2142.995620 2147.458974 2148.030473 2145.764575 2141.774911 2137.042516 2132.321711 2128.123311 2124.745204 2122.322372 2120.877208 2120.360723 2120.682320 2121.729606 2123.380923 2125.513119 2128.006445 2130.747774 2133.632790 2136.567491 2139.469140 2142.266725 2144.900987 1967.855786 1969.369729 1970.865827 1972.342058 1973.796336 1975.226459 1976.630055 1978.004500 1979.346824 1980.653595 1981.920793 1983.143679 1984.316685 1985.433341 1986.486287 1987.467402 1988.368113 1989.179900 1989.895034 1990.507491 1991.013970 1991.414834 1991.714785 1991.923052 1992.052949 1992.120767 1992.144138 1992.140151 1992.123627 1992.106041 1992.095627 1992.099314 1992.127290 1992.201238 1992.367193 1992.712701 1993.383084 1994.580757 1996.518402 1999.307271 2002.832636 2006.750955 2010.670489 2014.370635 2017.883030 2021.431864 2025.329915 2029.883450 2035.299424 2041.579466 2048.425759 2055.241462 2061.296871 2065.988689 2068.983130 2070.112719 2069.097003 2065.285298 2057.867133 2047.319243 2036.874974 2029.917160 2026.636811 2025.462264 2025.141566 2025.103934 2025.242860 2025.770090 2027.161982 2030.094073 2035.274556 2043.147743 2053.552877 2065.541891 2077.544999 2087.861398 2095.214731 2099.085766 2099.715861 2097.868224 2094.510473 2090.552370 2086.699084 2083.413820 2080.949329 2079.405551 2078.785239 2079.035694 2080.075449 2081.809389 2084.136595 2086.954300 2090.160176 2093.654086 2097.339757 2101.126464 2104.930591 2108.676940 2112.299670 2115.742808 1965.715205 1967.356180 1968.981536 1970.588646 1972.174736 1973.736830 1975.271698 1976.775770 1978.245046 1979.674992 1981.060420 1982.395387 1983.673108 1984.885937 1986.025432 1987.082569 1988.048140 1988.913368 1989.670740 1990.314995 1990.844153 1991.260391 1991.570551 1991.786074 1991.922260 1991.996885 1992.028361 1992.033738 1992.026944 1992.017598 1992.010784 1992.008161 1992.010930 1992.025446 1992.072474 1992.200872 1992.504010 1993.129532 1994.258188 1996.020429 1998.367821 2001.027528 2003.661939 2006.116099 2008.522892 2011.243449 2014.768738 2019.640507 2026.342001 2035.065312 2045.350637 2055.896776 2065.029957 2071.654737 2075.692207 2077.649009 2077.954635 2076.503726 2072.344845 2063.888834 2051.290228 2039.104614 2031.508621 2028.028312 2026.703802 2026.354847 2026.568058 2027.347607 2028.918486 2031.603362 2035.679870 2041.195203 2047.796556 2054.692591 2060.827836 2065.221657 2067.302085 2067.064056 2064.994170 2061.835640 2058.331906 2055.058694 2052.37371