# vtk DataFile Version 3.0
vtk output
ASCII
DATASET STRUCTURED_POINTS
DIMENSIONS 100 100 1
SPACING 0.020099 0.019278 0
ORIGIN -0.998911 -0.923077 0
POINT_DATA 10000
SCALARS RTData float
LOOKUP_TABLE default
-0.118000 -0.125928 -0.133629 -0.140746 -0.146971 -0.152110 -0.156115 -0.159062 -0.161096 -0.162330 -0.162798 -0.162771 -0.147600 -0.142639 -0.142712 -0.142293 -0.135883 -0.110078 -0.072379 -0.053307 -0.048194 -0.047033 -0.046656 -0.046093 -0.044519 -0.040790 -0.033476 -0.021083 -0.002385 0.023196 0.055320 0.092655 0.133093 0.174183 0.213628 0.249675 0.281284 0.308082 0.330183 0.347974 0.361918 0.372416 0.379725 0.383930 0.384955 0.382616 0.376712 0.367142 0.354022 0.337777 0.319172 0.299249 0.279185 0.260111 0.242939 0.228255 0.216302 0.207024 0.200162 0.195357 0.192231 0.190451 0.189755 0.189954 0.190924 0.192603 0.194982 0.198064 0.201785 0.205927 0.210046 0.213455 0.215272 0.214537 0.210342 0.201925 0.188698 0.170242 0.146319 0.116971 0.082703 0.044714 0.005012 -0.033747 -0.068788 -0.097934 -0.120151 -0.135643 -0.145514 -0.151245 -0.154251 -0.155617 -0.156000 -0.155651 -0.154478 -0.152161 -0.148303 -0.142603 -0.134990 -0.125669 -0.116410 -0.124094 -0.131780 -0.139068 -0.145572 -0.151016 -0.155288 -0.158432 -0.160591 -0.161917 -0.162496 -0.161740 -0.147255 -0.142738 -0.142754 -0.141859 -0.132640 -0.099078 -0.061415 -0.048739 -0.046645 -0.046402 -0.046357 -0.046071 -0.044801 -0.041275 -0.033829 -0.020719 -0.000559 0.027232 0.062108 0.102369 0.145470 0.188582 0.229191 0.265520 0.296664 0.322485 0.343350 0.359871 0.372675 0.382263 0.388931 0.392737 0.393526 0.390990 0.384775 0.374627 0.360548 0.342927 0.322590 0.300734 0.278750 0.257977 0.239484 0.223926 0.211531 0.202163 0.195453 0.190928 0.188121 0.186642 0.186207 0.186616 0.187730 0.189483 0.191905 0.195087 0.199068 0.203703 0.208568 0.212923 0.215787 0.216091 0.212856 0.205298 0.192833 0.175022 0.151543 0.122284 0.087564 0.048454 0.007011 -0.033831 -0.070843 -0.101412 -0.124278 -0.139695 -0.149007 -0.153994 -0.156319 -0.157222 -0.157429 -0.157175 -0.156284 -0.154301 -0.150679 -0.145013 -0.137225 -0.127596 -0.114315 -0.121467 -0.128907 -0.136230 -0.142974 -0.148756 -0.153365 -0.156774 -0.159079 -0.160395 -0.160581 -0.157861 -0.148701 -0.143872 -0.142863 -0.140012 -0.125309 -0.086424 -0.054914 -0.047145 -0.046340 -0.046315 -0.046308 -0.046078 -0.044817 -0.041063 -0.032905 -0.018383 0.003967 0.034602 0.072648 0.115952 0.161519 0.206195 0.247335 0.283236 0.313225 0.337461 0.356607 0.371510 0.382964 0.391562 0.397626 0.401182 0.401981 0.399566 0.393396 0.383017 0.368269 0.349462 0.327468 0.303647 0.279636 0.257029 0.237089 0.220568 0.207678 0.198199 0.191636 0.187387 0.184881 0.183674 0.183481 0.184119 0.185404 0.187202 0.189576 0.192746 0.196891 0.201965 0.207559 0.212869 0.216788 0.218127 0.215853 0.209206 0.197654 0.180775 0.158175 0.129554 0.094976 0.055272 0.012418 -0.030451 -0.069653 -0.102052 -0.126048 -0.141845 -0.150975 -0.155495 -0.157323 -0.157876 -0.157966 -0.157827 -0.157197 -0.155471 -0.151940 -0.146121 -0.137983 -0.127953 -0.112071 -0.118297 -0.125112 -0.132178 -0.138996 -0.145070 -0.150047 -0.153776 -0.156247 -0.157450 -0.157074 -0.154137 -0.148751 -0.144599 -0.141636 -0.134906 -0.114052 -0.076418 -0.052369 -0.046855 -0.046325 -0.046313 -0.046293 -0.045957 -0.044336 -0.039743 -0.030048 -0.013186 0.012222 0.046314 0.087754 0.133907 0.181396 0.226860 0.267654 0.302262 0.330326 0.352351 0.369314 0.382294 0.392234 0.399807 0.405352 0.408857 0.409975 0.408083 0.402419 0.392281 0.377284 0.357608 0.334128 0.308368 0.282235 0.257632 0.236065 0.218417 0.204910 0.195233 0.188756 0.184730 0.182463 0.181448 0.181443 0.182376 0.183964 0.185817 0.188042 0.191087 0.195327 0.200825 0.207176 0.213468 0.218433 0.220753 0.219372 0.213618 0.203081 0.187398 0.166117 0.138737 0.105002 0.065391 0.021644 -0.023049 -0.064609 -0.099323 -0.125113 -0.141983 -0.151536 -0.156047 -0.157677 -0.158040 -0.158067 -0.158011 -0.157527 -0.155838 -0.152084 -0.145771 -0.137039 -0.126536 -0.110233 -0.115090 -0.120752 -0.127052 -0.133557 -0.139695 -0.144954 -0.149008 -0.151701 -0.152927 -0.152478 -0.150130 -0.146366 -0.142221 -0.136750 -0.125420 -0.101413 -0.069967 -0.051757 -0.046995 -0.046348 -0.046288 -0.046145 -0.045375 -0.042765 -0.036407 -0.024054 -0.003735 0.025570 0.063469 0.108087 0.156395 0.204820 0.249978 0.289362 0.321735 0.347104 0.366347 0.380742 0.391574 0.399908 0.406473 0.411622 0.415311 0.417099 0.416199 0.411601 0.402304 0.387633 0.367557 0.342901 0.315321 0.287012 0.260229 0.236790 0.217765 0.203417 0.193364 0.186838 0.182928 0.180796 0.179836 0.179863 0.181239 0.183516 0.185399 0.187300 0.190115 0.194444 0.200433 0.207631 0.214957 0.220926 0.224088 0.223433 0.218464 0.208971 0.194698 0.175148 0.149618 0.117494 0.078805 0.034898 -0.011172 -0.055068 -0.092515 -0.120842 -0.139677 -0.150512 -0.155709 -0.157612 -0.158038 -0.158068 -0.158003 -0.157404 -0.155315 -0.150790 -0.143517 -0.133989 -0.123102 -0.109480 -0.112620 -0.116556 -0.121383 -0.126885 -0.132546 -0.137742 -0.141947 -0.144824 -0.146167 -0.145834 -0.143791 -0.140196 -0.134939 -0.126528 -0.111670 -0.088447 -0.064373 -0.050821 -0.046705 -0.045971 -0.045753 -0.045131 -0.043245 -0.038618 -0.029207 -0.012874 0.011932 0.045567 0.086964 0.133812 0.182959 0.230913 0.274459 0.311316 0.340560 0.362576 0.378601 0.390182 0.398762 0.405482 0.411106 0.415998 0.420106 0.422926 0.423520 0.420619 0.412881 0.399263 0.379441 0.354096 0.324960 0.294501 0.265364 0.239751 0.218994 0.203463 0.192740 0.185934 0.181971 0.179845 0.178823 0.178635 0.180703 0.184570 0.185962 0.187242 0.189798 0.194338 0.201016 0.209242 0.217658 0.224502 0.228230 0.227990 0.223590 0.215090 0.202367 0.184895 0.161774 0.132025 0.095174 0.052037 0.005330 -0.040541 -0.080843 -0.112285 -0.133981 -0.147120 -0.153950 -0.156848 -0.157758 -0.157904 -0.157637 -0.156409 -0.153144 -0.147094 -0.138505 -0.128334 -0.117527 -0.110389 -0.111758 -0.113595 -0.116237 -0.119803 -0.124046 -0.128396 -0.132186 -0.134858 -0.136031 -0.135456 -0.132960 -0.128322 -0.120938 -0.109513 -0.092802 -0.072452 -0.054990 -0.045802 -0.043162 -0.042839 -0.042404 -0.040734 -0.036720 -0.028759 -0.014934 0.006415 0.036036 0.073421 0.116936 0.164189 0.212311 0.258170 0.298814 0.332169 0.357588 0.375808 0.388395 0.397105 0.403473 0.408659 0.413438 0.418199 0.422920 0.427090 0.429660 0.429114 0.423731 0.412032 0.393298 0.367965 0.337737 0.305300 0.273699 0.245582 0.222647 0.205456 0.193627 0.186188 0.181925 0.179659 0.178523 0.178259 0.183529 0.187105 0.186954 0.187598 0.190126 0.195237 0.202991 0.212500 0.221989 0.229387 0.233181 0.232870 0.228708 0.221075 0.209972 0.194831 0.174571 0.147875 0.113755 0.072410 0.026051 -0.021048 -0.063835 -0.098456 -0.123488 -0.139722 -0.149130 -0.153905 -0.155894 -0.156293 -0.155393 -0.152585 -0.147113 -0.139148 -0.129754 -0.119931 -0.110154 -0.113129 -0.113060 -0.112891 -0.113015 -0.113823 -0.115473 -0.117712 -0.119935 -0.121423 -0.121535 -0.119756 -0.115626 -0.108625 -0.098095 -0.083539 -0.065734 -0.048054 -0.035396 -0.030003 -0.029638 -0.030548 -0.030181 -0.027151 -0.020278 -0.008161 0.010580 0.036718 0.069961 0.109030 0.152137 0.197325 0.242388 0.284681 0.321434 0.350647 0.371863 0.386139 0.395325 0.401317 0.405659 0.409469 0.413506 0.418207 0.423645 0.429383 0.434337 0.436768 0.434557 0.425724 0.409065 0.384657 0.354047 0.320031 0.286003 0.255104 0.229493 0.210049 0.196525 0.187947 0.183030 0.180492 0.179316 0.179909 0.187823 0.187803 0.187479 0.188194 0.191349 0.197729 0.207137 0.218147 0.228424 0.235686 0.238732 0.237688 0.233370 0.226444 0.216967 0.204301 0.187204 0.164072 0.133435 0.094835 0.049857 0.002492 -0.041980 -0.079173 -0.107138 -0.126296 -0.138352 -0.145220 -0.148399 -0.148704 -0.146247 -0.140986 -0.133657 -0.125601 -0.117647 -0.109883 -0.102118 -0.117294 -0.116387 -0.114801 -0.112752 -0.110619 -0.108822 -0.107563 -0.106596 -0.105270 -0.102748 -0.098185 -0.090792 -0.079870 -0.065033 -0.046811 -0.027420 -0.010619 0.000141 0.003955 0.002895 0.000513 0.000007 0.003489 0.012339 0.027592 0.049786 0.078539 0.112528 0.150057 0.189715 0.230412 0.270776 0.308570 0.340974 0.365849 0.382851 0.393342 0.399424 0.403050 0.405679 0.408322 0.411701 0.416332 0.422463 0.429848 0.437467 0.443411 0.445141 0.440121 0.426596 0.404188 0.374159 0.339250 0.303094 0.269302 0.240578 0.218247 0.202320 0.191928 0.185818 0.182757 0.181989 0.184237 0.187324 0.187631 0.187818 0.189579 0.194480 0.203176 0.214830 0.227169 0.237326 0.243188 0.244345 0.241828 0.236995 0.230648 0.222774 0.212616 0.198810 0.179536 0.152901 0.117780 0.075021 0.028217 -0.017161 -0.056100 -0.086006 -0.106851 -0.120054 -0.127297 -0.129859 -0.128610 -0.124605 -0.119481 -0.114588 -0.110154 -0.105704 -0.100751 -0.095073 -0.122082 -0.120929 -0.118714 -0.115369 -0.110971 -0.105814 -0.100308 -0.094673 -0.088653 -0.081502 -0.072213 -0.059789 -0.043572 -0.023724 -0.001788 0.019296 0.036298 0.047241 0.052001 0.051961 0.049617 0.048167 0.050735 0.059603 0.075833 0.099054 0.127570 0.159146 0.192115 0.225895 0.260491 0.295357 0.328466 0.356657 0.377440 0.390546 0.397679 0.401164 0.402921 0.404235 0.405947 0.408718 0.413181 0.419853 0.428818 0.439252 0.449133 0.455471 0.455119 0.445731 0.426444 0.398135 0.363323 0.325693 0.289225 0.257188 0.231458 0.212441 0.199478 0.191410 0.187055 0.185521 0.186108 0.187278 0.188091 0.189711 0.193959 0.202227 0.214320 0.228146 0.240527 0.248595 0.251156 0.249135 0.244539 0.239020 0.233228 0.226919 0.219195 0.208623 0.193264 0.170891 0.139705 0.099694 0.053871 0.007855 -0.032601 -0.064090 -0.086019 -0.099497 -0.106168 -0.107817 -0.106545 -0.104505 -0.102895 -0.101689 -0.100298 -0.098103 -0.094735 -0.090162 -0.126667 -0.125651 -0.123441 -0.119730 -0.114208 -0.106713 -0.097380 -0.086571 -0.074524 -0.061001 -0.045299 -0.026660 -0.004894 0.018991 0.042609 0.063027 0.078223 0.087843 0.092713 0.094077 0.093484 0.093278 0.096702 0.106796 0.124692 0.148846 0.176073 0.203604 0.230447 0.257281 0.285325 0.314810 0.343748 0.368370 0.385646 0.395410 0.399788 0.401303 0.401762 0.402189 0.403202 0.405391 0.409529 0.416504 0.426889 0.440211 0.454374 0.465868 0.470853 0.466402 0.451217 0.425785 0.392272 0.354196 0.315716 0.280605 0.251356 0.228880 0.212822 0.202154 0.195702 0.192410 0.191341 0.191741 0.193692 0.198403 0.207303 0.220407 0.235529 0.249257 0.258422 0.261270 0.258332 0.252093 0.245217 0.239136 0.234001 0.229206 0.223726 0.216145 0.204533 0.186436 0.159404 0.122415 0.077653 0.030747 -0.011754 -0.045570 -0.069647 -0.085004 -0.093462 -0.097161 -0.098308 -0.098515 -0.098437 -0.098085 -0.097144 -0.095166 -0.091861 -0.087306 -0.130495 -0.129760 -0.127883 -0.124428 -0.118788 -0.110284 -0.098420 -0.083160 -0.064924 -0.044210 -0.021275 0.003652 0.029717 0.054976 0.076817 0.093261 0.103982 0.110082 0.113115 0.114433 0.115320 0.117754 0.124992 0.140298 0.163797 0.191391 0.218042 0.241320 0.261843 0.281886 0.303858 0.328724 0.354481 0.376518 0.391084 0.398181 0.400468 0.400658 0.400369 0.400309 0.400839 0.402463 0.406121 0.413169 0.424842 0.441173 0.459985 0.477081 0.487807 0.488724 0.478270 0.456656 0.425647 0.388399 0.349011 0.311617 0.279342 0.253719 0.234823 0.221841 0.213682 0.209360 0.208225 0.210231 0.216136 0.226796 0.241496 0.257277 0.270501 0.278420 0.279435 0.273596 0.263373 0.252549 0.243735 0.237501 0.233196 0.229813 0.226264 0.221261 0.213015 0.198989 0.176154 0.142353 0.098652 0.050522 0.005407 -0.031461 -0.058696 -0.077320 -0.088912 -0.095048 -0.097577 -0.098327 -0.098410 -0.098073 -0.096966 -0.094568 -0.090665 -0.085574 -0.133356 -0.132888 -0.131413 -0.128466 -0.123281 -0.114793 -0.101825 -0.083554 -0.060061 -0.032448 -0.002450 0.027916 0.056334 0.080325 0.098068 0.109316 0.115375 0.118172 0.119347 0.120026 0.121306 0.125441 0.136909 0.160165 0.192968 0.225911 0.251959 0.270704 0.285232 0.299280 0.316122 0.337396 0.361155 0.381777 0.394533 0.399655 0.400463 0.399874 0.399283 0.399059 0.399291 0.400392 0.403495 0.410528 0.423571 0.443284 0.467270 0.490320 0.506824 0.513008 0.507363 0.490051 0.462483 0.427316 0.388345 0.349869 0.315618 0.287899 0.267463 0.253990 0.246772 0.245231 0.249173 0.258617 0.272854 0.289171 0.303444 0.312640 0.315604 0.311779 0.300732 0.283847 0.265552 0.250567 0.240599 0.234749 0.231420 0.229256 0.227209 0.224226 0.218791 0.208442 0.189693 0.159201 0.116651 0.067226 0.019513 -0.020081 -0.050036 -0.071746 -0.086505 -0.094794 -0.097977 -0.098635 -0.098668 -0.098414 -0.097216 -0.094308 -0.089625 -0.083917 -0.135300 -0.135016 -0.133870 -0.131413 -0.126846 -0.118899 -0.105853 -0.086018 -0.058723 -0.025301 0.010881 0.045505 0.074696 0.096104 0.109469 0.116378 0.119215 0.120083 0.120291 0.120498 0.121499 0.126004 0.140981 0.174032 0.218327 0.255472 0.278620 0.291960 0.301024 0.310159 0.322927 0.341566 0.364443 0.384867 0.396760 0.400537 0.400328 0.399317 0.398696 0.398508 0.398586 0.399260 0.401908 0.409159 0.424130 0.448110 0.478052 0.507200 0.528946 0.539602 0.538167 0.525035 0.501362 0.469214 0.431859 0.393512 0.358407 0.329748 0.309262 0.297500 0.294461 0.299936 0.313062 0.331044 0.348736 0.361204 0.366578 0.365280 0.357651 0.342788 0.319729 0.291320 0.265150 0.246975 0.236775 0.231774 0.229447 0.228216 0.227157 0.225547 0.222258 0.215042 0.200107 0.172958 0.131700 0.081123 0.031365 -0.009596 -0.040362 -0.063643 -0.081523 -0.093121 -0.097850 -0.098678 -0.098695 -0.098435 -0.096881 -0.093136 -0.087605 -0.081621 -0.136492 -0.136307 -0.135368 -0.133231 -0.129173 -0.121879 -0.109272 -0.088904 -0.059219 -0.021412 0.019721 0.057495 0.086639 0.105393 0.115239 0.119215 0.120249 0.120289 0.120220 0.120246 0.120839 0.125227 0.144089 0.189902 0.245378 0.281371 0.298149 0.305723 0.310377 0.315886 0.325590 0.342300 0.365107 0.386457 0.398457 0.401434 0.400452 0.399112 0.398502 0.398398 0.398415 0.398859 0.401461 0.409751 0.428038 0.457902 0.494687 0.529458 0.555003 0.568520 0.570038 0.560394 0.540539 0.511888 0.476966 0.439594 0.404259 0.374977 0.354499 0.344219 0.344387 0.353824 0.368997 0.384230 0.394831 0.399755 0.400009 0.395921 0.386009 0.366827 0.335388 0.296533 0.263303 0.243016 0.233298 0.229375 0.227951 0.227312 0.226687 0.225778 0.223964 0.219267 0.207721 0.183788 0.143859 0.092223 0.040996 0.000303 -0.028458 -0.049847 -0.068809 -0.085567 -0.095371 -0.098158 -0.098394 -0.097579 -0.094826 -0.089804 -0.083945 -0.078700 -0.137085 -0.136956 -0.136091 -0.134000 -0.130211 -0.123467 -0.111425 -0.091054 -0.060020 -0.019202 0.025554 0.065554 0.094414 0.111058 0.118426 0.120549 0.120591 0.120289 0.120187 0.120189 0.120631 0.125702 0.151474 0.213862 0.273871 0.301039 0.310015 0.313077 0.314927 0.318148 0.325705 0.340955 0.364090 0.387228 0.400315 0.402992 0.401257 0.399381 0.398551 0.398402 0.398429 0.399049 0.402576 0.413738 0.437945 0.475904 0.519719 0.558192 0.584874 0.598933 0.601746 0.594573 0.578107 0.553050 0.521007 0.485069 0.449558 0.418951 0.396734 0.384777 0.383018 0.389003 0.398025 0.405397 0.409320 0.410624 0.410303 0.407922 0.400827 0.383059 0.347831 0.300698 0.261576 0.239906 0.230876 0.227966 0.227264 0.226924 0.226136 0.225297 0.224439 0.221701 0.213017 0.191971 0.153222 0.100396 0.047844 0.008325 -0.016302 -0.031503 -0.044433 -0.060946 -0.079556 -0.090715 -0.093615 -0.092295 -0.088359 -0.083524 -0.079536 -0.076384 -0.137215 -0.137130 -0.136012 -0.133585 -0.129918 -0.123629 -0.112070 -0.091799 -0.059962 -0.017199 0.029954 0.071412 0.100036 0.115249 0.120956 0.121811 0.121115 0.120468 0.120237 0.120266 0.121268 0.129697 0.168640 0.245867 0.296814 0.311905 0.315217 0.315970 0.316557 0.318589 0.324811 0.339055 0.362662 0.388080 0.403223 0.406194 0.403615 0.400735 0.399193 0.398732 0.398942 0.400637 0.407135 0.424573 0.458447 0.505923 0.554455 0.592494 0.616686 0.628835 0.631400 0.625746 0.612178 0.590661 0.561796 0.527671 0.491992 0.459213 0.433192 0.416169 0.408226 0.407129 0.409152 0.411166 0.412106 0.412329 0.412242 0.411391 0.407284 0.392831 0.357397 0.305161 0.261648 0.238609 0.229744 0.227431 0.227194 0.227030 0.225184 0.224190 0.224159 0.222952 0.216552 0.197887 0.160034 0.105829 0.051730 0.013146 -0.007603 -0.016424 -0.020158 -0.024741 -0.036229 -0.055491 -0.070607 -0.076668 -0.078099 -0.078215 -0.077677 -0.076335 -0.136609 -0.136009 -0.133729 -0.131363 -0.128262 -0.122488 -0.111199 -0.090776 -0.058184 -0.014083 0.034517 0.076817 0.105338 0.119729 0.124341 0.124168 0.122665 0.121463 0.120978 0.121385 0.124724 0.141656 0.198461 0.275539 0.309138 0.315766 0.316590 0.316668 0.316895 0.318448 0.324092 0.338029 0.362410 0.390359 0.408501 0.412727 0.409482 0.405158 0.402361 0.401421 0.402476 0.407277 0.420571 0.449169 0.495356 0.549462 0.596270 0.628295 0.646752 0.655362 0.656804 0.652121 0.641138 0.623146 0.597805 0.566095 0.530786 0.495871 0.465247 0.441582 0.425835 0.417223 0.413616 0.412580 0.412424 0.412421 0.412416 0.412165 0.409765 0.398095 0.364484 0.311166 0.265244 0.240114 0.230027 0.227375 0.227205 0.226846 0.222806 0.222987 0.223704 0.223649 0.218947 0.202032 0.164814 0.109393 0.053681 0.015206 -0.003520 -0.009449 -0.009976 -0.009736 -0.011509 -0.020493 -0.041818 -0.064232 -0.075625 -0.079081 -0.079433 -0.078289 -0.122589 -0.124537 -0.127019 -0.127458 -0.125654 -0.120332 -0.108876 -0.087721 -0.053961 -0.008611 0.040902 0.083642 0.112229 0.126352 0.130345 0.129309 0.126925 0.125108 0.124685 0.126768 0.135787 0.166040 0.232836 0.293568 0.313595 0.316567 0.316733 0.316736 0.316920 0.318479 0.324409 0.339149 0.365089 0.395891 0.417973 0.425095 0.422402 0.417088 0.413236 0.412527 0.416431 0.428194 0.453329 0.495716 0.549723 0.600576 0.637376 0.659444 0.671000 0.675910 0.676232 0.672452 0.663959 0.649547 0.628125 0.599666 0.565925 0.530177 0.496015 0.466274 0.442820 0.426647 0.417501 0.413623 0.412562 0.412429 0.412438 0.412415 0.410862 0.400943 0.370173 0.319991 0.274348 0.246372 0.232909 0.228003 0.226636 0.223117 0.222409 0.222665 0.223722 0.224516 0.220948 0.205105 0.168473 0.112691 0.055853 0.016625 -0.001937 -0.007424 -0.007890 -0.007654 -0.007789 -0.010950 -0.031871 -0.067103 -0.079903 -0.081899 -0.081708 -0.080391 -0.121511 -0.121729 -0.123174 -0.124290 -0.122959 -0.117430 -0.105024 -0.082237 -0.046513 0.000464 0.050819 0.093892 0.122818 0.137301 0.141340 0.139888 0.136902 0.134885 0.135533 0.141373 0.158735 0.199201 0.259660 0.301782 0.314738 0.316640 0.316734 0.316748 0.317091 0.319306 0.326757 0.343882 0.372599 0.406748 0.433631 0.445926 0.446753 0.443165 0.440745 0.443168 0.453749 0.476392 0.513686 0.561883 0.609667 0.646328 0.669122 0.681315 0.687134 0.689350 0.689130 0.686457 0.680450 0.669629 0.652415 0.628020 0.597351 0.562984 0.527990 0.494809 0.465346 0.441675 0.425601 0.417058 0.413756 0.412917 0.412966 0.413442 0.412739 0.404117 0.376876 0.333166 0.291329 0.261579 0.243004 0.232734 0.227307 0.223617 0.222750 0.223311 0.225057 0.226666 0.223660 0.208203 0.172430 0.117821 0.060833 0.019940 -0.000275 -0.006706 -0.007616 -0.007564 -0.007579 -0.009590 -0.033554 -0.074013 -0.082445 -0.082958 -0.082727 -0.081557 -0.121575 -0.121739 -0.122329 -0.122504 -0.120367 -0.113610 -0.099193 -0.073620 -0.034876 0.014419 0.065897 0.109463 0.139132 0.154787 0.159956 0.159173 0.156523 0.155216 0.158003 0.168379 0.191775 0.232019 0.277600 0.305926 0.315190 0.316755 0.316858 0.317042 0.318157 0.322313 0.333148 0.354505 0.387090 0.424830 0.456907 0.476385 0.484623 0.487605 0.491546 0.501447 0.520976 0.551403 0.589398 0.627231 0.657514 0.677368 0.688233 0.693360 0.695559 0.696378 0.696265 0.694888 0.691281 0.683901 0.670923 0.651078 0.624726 0.594037 0.561692 0.529433 0.498149 0.469289 0.445594 0.429535 0.421040 0.417812 0.417638 0.419160 0.419678 0.412023 0.388109 0.351953 0.317573 0.291439 0.271283 0.254242 0.240151 0.230756 0.227350 0.227935 0.230463 0.232349 0.228834 0.212974 0.178601 0.126998 0.071111 0.027668 0.003669 -0.005420 -0.007463 -0.007625 -0.007814 -0.011524 -0.040454 -0.076747 -0.082836 -0.083028 -0.082887 -0.081718 -0.121761 -0.121820 -0.121807 -0.120823 -0.117099 -0.108081 -0.090443 -0.060794 -0.017903 0.034433 0.087354 0.131570 0.162292 0.179868 0.187460 0.188972 0.188181 0.188557 0.193390 0.206018 0.229215 0.261521 0.292730 0.311421 0.317783 0.318700 0.318749 0.319711 0.323078 0.331363 0.347701 0.374341 0.410573 0.451105 0.487754 0.514830 0.532516 0.545194 0.558222 0.575791 0.599437 0.626922 0.653151 0.673654 0.687005 0.694174 0.697176 0.698110 0.698444 0.698841 0.699268 0.699204 0.697753 0.693474 0.684469 0.669196 0.647750 0.622267 0.595461 0.568708 0.541816 0.514467 0.487885 0.465134 0.449227 0.440919 0.438769 0.440005 0.439666 0.430126 0.406565 0.375408 0.349201 0.333147 0.323400 0.312364 0.293688 0.270410 0.254164 0.247777 0.246425 0.245047 0.238515 0.221253 0.188974 0.142120 0.088845 0.042609 0.012741 -0.001454 -0.006375 -0.007770 -0.009194 -0.016802 -0.044978 -0.074024 -0.081934 -0.082780 -0.082343 -0.080904 -0.121502 -0.121265 -0.120420 -0.117922 -0.111893 -0.099550 -0.077412 -0.042433 0.005499 0.061203 0.115429 0.159935 0.191358 0.210779 0.221249 0.226060 0.228246 0.230726 0.236444 0.248095 0.266940 0.290528 0.311915 0.324726 0.329023 0.329321 0.329772 0.332921 0.340694 0.354826 0.376512 0.406234 0.443282 0.484425 0.524001 0.557101 0.582640 0.603010 0.621712 0.641172 0.661332 0.679669 0.693264 0.700949 0.703352 0.702275 0.700237 0.698753 0.698196 0.698757 0.699995 0.701107 0.701435 0.699807 0.694320 0.683239 0.666558 0.646631 0.626524 0.607727 0.589759 0.571382 0.551972 0.532373 0.514833 0.501679 0.493383 0.487431 0.478509 0.460510 0.431721 0.399699 0.376415 0.366923 0.366644 0.367543 0.362572 0.345303 0.317348 0.292658 0.276965 0.265739 0.252988 0.233793 0.204615 0.164042 0.115210 0.067332 0.030725 0.009012 -0.001398 -0.006181 -0.010369 -0.019861 -0.039598 -0.062295 -0.075462 -0.079528 -0.080492 -0.080928 -0.119880 -0.119076 -0.117001 -0.112410 -0.103207 -0.086401 -0.058553 -0.017337 0.035838 0.094318 0.148733 0.192163 0.222771 0.242454 0.254348 0.261349 0.265815 0.269870 0.275767 0.285797 0.301240 0.320592 0.339166 0.352322 0.359294 0.362950 0.367045 0.374305 0.385835 0.401625 0.421913 0.448037 0.481363 0.520794 0.561666 0.598366 0.628003 0.651066 0.669608 0.685377 0.698748 0.708825 0.714764 0.716466 0.713724 0.707066 0.700974 0.697792 0.696432 0.697643 0.700189 0.702173 0.703853 0.704478 0.702018 0.694488 0.681850 0.666767 0.652653 0.641092 0.631580 0.622837 0.613850 0.604178 0.593622 0.581748 0.567849 0.550795 0.528459 0.498384 0.460849 0.422349 0.394194 0.382373 0.381200 0.382249 0.381987 0.377648 0.362683 0.336695 0.309838 0.287661 0.268558 0.248875 0.224455 0.191434 0.148874 0.101836 0.059779 0.029578 0.011401 0.001140 -0.005715 -0.012168 -0.020655 -0.035722 -0.057844 -0.075458 -0.081371 -0.081952 -0.115787 -0.114015 -0.110148 -0.102699 -0.089344 -0.067003 -0.032624 0.014903 0.072324 0.131700 0.184065 0.224122 0.251529 0.268906 0.279504 0.286052 0.290611 0.294928 0.300912 0.310829 0.326596 0.347964 0.371486 0.392780 0.409942 0.423729 0.435352 0.445183 0.453415 0.461384 0.472069 0.489523 0.517136 0.554668 0.596578 0.635128 0.665497 0.687143 0.701835 0.711723 0.718401 0.722644 0.724786 0.724982 0.722103 0.712714 0.702032 0.697325 0.694171 0.697390 0.701779 0.703628 0.706409 0.709185 0.709306 0.704452 0.694697 0.683081 0.673158 0.666210 0.661396 0.657272 0.652769 0.647601 0.641771 0.634150 0.622048 0.602355 0.573255 0.535674 0.492305 0.446607 0.408061 0.388278 0.383735 0.383575 0.383581 0.382747 0.376401 0.357904 0.329311 0.301093 0.279598 0.262845 0.244963 0.220064 0.184799 0.141220 0.096578 0.058470 0.030555 0.012466 0.002537 -0.001174 -0.002520 -0.007671 -0.031572 -0.071910 -0.081811 -0.082077 -0.107987 -0.104695 -0.098335 -0.087188 -0.068795 -0.040269 0.000581 0.053181 0.112434 0.169754 0.217299 0.251631 0.273748 0.286803 0.294108 0.298287 0.301260 0.304629 0.310251 0.320735 0.339110 0.366651 0.400136 0.433072 0.460471 0.480646 0.493720 0.500700 0.503380 0.504441 0.507915 0.519318 0.543854 0.581964 0.626236 0.666013 0.695163 0.713513 0.723504 0.727701 0.728495 0.728290 0.728294 0.728298 0.727431 0.720883 0.705705 0.700235 0.703287 0.708035 0.704992 0.706209 0.710931 0.716203 0.718213 0.714661 0.706203 0.696417 0.688747 0.683825 0.680347 0.676679 0.671461 0.664699 0.658571 0.653735 0.646807 0.631847 0.603773 0.565578 0.524706 0.479524 0.429818 0.395303 0.384727 0.383618 0.383599 0.383205 0.379040 0.363175 0.332893 0.302432 0.283696 0.272802 0.261903 0.244444 0.216023 0.177375 0.133774 0.090209 0.051126 0.022186 0.007259 0.003272 0.003211 0.002844 -0.005629 -0.054624 -0.080130 -0.081813 -0.095264 -0.089807 -0.080241 -0.064708 -0.040844 -0.006359 0.039609 0.094659 0.152394 0.204566 0.245091 0.272362 0.288394 0.296628 0.300314 0.301889 0.303017 0.305023 0.309638 0.319888 0.340327 0.374566 0.419175 0.462161 0.493209 0.510969 0.519328 0.522429 0.522933 0.522684 0.524695 0.534790 0.560069 0.601955 0.650351 0.691136 0.718043 0.732785 0.739106 0.739417 0.735233 0.730623 0.729001 0.728837 0.728774 0.726727 0.713194 0.704683 0.706052 0.707163 0.707491 0.712795 0.721941 0.729211 0.730946 0.726315 0.717169 0.707698 0.700880 0.696377 0.692605 0.688233 0.681205 0.669685 0.660078 0.656745 0.654377 0.645239 0.619914 0.583532 0.552662 0.522087 0.474193 0.417813 0.390043 0.384440 0.383784 0.383048 0.377886 0.358765 0.323944 0.295646 0.283460 0.278489 0.273129 0.261401 0.237830 0.203531 0.164903 0.122291 0.074584 0.032411 0.009991 0.004204 0.003823 0.003841 0.002198 -0.024646 -0.067693 -0.077569 -0.076703 -0.068498 -0.055231 -0.035104 -0.006171 0.032881 0.081397 0.135530 0.188553 0.233464 0.266133 0.286407 0.296873 0.300994 0.301836 0.301564 0.301448 0.302344 0.305696 0.314807 0.335588 0.374414 0.428624 0.479106 0.509636 0.522561 0.526687 0.527666 0.527698 0.527727 0.530065 0.540814 0.568918 0.616611 0.669931 0.710965 0.734763 0.746032 0.750165 0.749643 0.743444 0.733377 0.729226 0.728848 0.728846 0.728339 0.721752 0.712648 0.710829 0.713661 0.723400 0.738253 0.748833 0.751978 0.748579 0.739654 0.727865 0.717750 0.711257 0.706548 0.701744 0.696964 0.691026 0.674060 0.656712 0.655055 0.655380 0.650164 0.624686 0.588191 0.568575 0.556964 0.533018 0.476702 0.417041 0.393142 0.387045 0.383574 0.373619 0.346382 0.309325 0.288472 0.282650 0.281250 0.279208 0.271397 0.249512 0.216336 0.185423 0.152930 0.106077 0.050654 0.015552 0.005148 0.003868 0.003823 0.002766 -0.010251 -0.043134 -0.062602 -0.052046 -0.040778 -0.023803 0.000376 0.033005 0.074261 0.122233 0.172416 0.218700 0.255740 0.281070 0.295417 0.301511 0.302625 0.301605 0.300363 0.299744 0.300005 0.302244 0.310190 0.330539 0.370903 0.430832 0.486839 0.516630 0.526250 0.528205 0.528417 0.528404 0.528639 0.531340 0.543243 0.574952 0.628776 0.686027 0.725750 0.745665 0.753574 0.756105 0.756271 0.753287 0.741468 0.730904 0.729072 0.729020 0.729470 0.730416 0.733680 0.744627 0.765906 0.785848 0.792188 0.788775 0.780447 0.768574 0.753442 0.738004 0.727208 0.721560 0.717076 0.710460 0.703518 0.700886 0.693363 0.655100 0.654433 0.655452 0.651182 0.620480 0.583654 0.572836 0.570520 0.564994 0.540137 0.480482 0.426577 0.401665 0.387395 0.366639 0.330972 0.297988 0.284799 0.282425 0.282272 0.281746 0.276424 0.251806 0.215061 0.193357 0.176185 0.143135 0.083925 0.030972 0.009692 0.004904 0.004063 0.002823 -0.004363 -0.021902 -0.039156 -0.021960 -0.007774 0.012284 0.039216 0.073469 0.114271 0.159033 0.203402 0.242402 0.272237 0.291561 0.301451 0.304445 0.303503 0.301274 0.299577 0.298959 0.298982 0.300463 0.308465 0.329804 0.368936 0.427955 0.487180 0.518339 0.527099 0.528396 0.528450 0.528453 0.528825 0.532193 0.546180 0.582182 0.640810 0.699164 0.735830 0.751742 0.756799 0.757966 0.758130 0.757743 0.753227 0.739527 0.732595 0.731962 0.735061 0.745503 0.767748 0.797075 0.816966 0.822181 0.820629 0.813912 0.801992 0.785486 0.765499 0.746963 0.736305 0.732890 0.730943 0.724249 0.710083 0.703221 0.703126 0.672635 0.656603 0.657382 0.649807 0.610589 0.578221 0.572935 0.572684 0.571949 0.564455 0.532464 0.476599 0.429680 0.395876 0.360316 0.320247 0.292838 0.283672 0.282421 0.282437 0.282342 0.277651 0.242838 0.203480 0.192768 0.187430 0.171495 0.125238 0.061570 0.024805 0.012624 0.009647 0.008991 0.006213 -0.001827 -0.013215 0.011921 0.028380 0.050351 0.078292 0.111994 0.150140 0.190074 0.228098 0.260433 0.284442 0.299383 0.306301 0.307342 0.305026 0.301779 0.299509 0.298844 0.298840 0.300574 0.312709 0.338499 0.372655 0.421990 0.480344 0.515876 0.526576 0.528316 0.528446 0.528510 0.529393 0.534626 0.552681 0.593706 0.654146 0.709693 0.742130 0.754734 0.757875 0.758249 0.758253 0.758254 0.757885 0.753685 0.747199 0.746208 0.752336 0.768659 0.795366 0.817380 0.824668 0.825313 0.824893 0.821532 0.812296 0.796021 0.774154 0.754167 0.744597 0.744366 0.747606 0.749253 0.739696 0.709738 0.703501 0.693660 0.671611 0.663604 0.646631 0.602229 0.576105 0.572830 0.572770 0.572647 0.569560 0.552170 0.510021 0.456213 0.405784 0.358202 0.316982 0.292451 0.283871 0.282425 0.282415 0.282138 0.273237 0.221524 0.193829 0.191193 0.190441 0.184313 0.154256 0.093237 0.046443 0.028880 0.024956 0.024283 0.022481 0.017795 0.010003 0.047274 0.064999 0.087469 0.114707 0.146122 0.180287 0.214888 0.247040 0.273957 0.293751 0.305923 0.311297 0.311537 0.308617 0.304523 0.301089 0.299488 0.299872 0.308146 0.335669 0.362274 0.382936 0.415289 0.466648 0.508304 0.524300 0.527908 0.528562 0.529188 0.531865 0.541433 0.566219 0.611863 0.669601 0.718534 0.746247 0.756481 0.758462 0.758357 0.758263 0.758377 0.760228 0.767420 0.775414 0.779539 0.783635 0.792821 0.808726 0.821172 0.824991 0.825323 0.825073 0.822787 0.815467 0.800658 0.779133 0.759462 0.751226 0.753191 0.759457 0.765738 0.768838 0.764469 0.731377 0.708282 0.689227 0.672200 0.644521 0.600350 0.576858 0.572985 0.572759 0.572515 0.569770 0.556602 0.522844 0.470530 0.413024 0.360581 0.320480 0.296628 0.286081 0.282789 0.281916 0.279398 0.257438 0.204563 0.191355 0.190916 0.190860 0.187982 0.165908 0.106951 0.053863 0.034506 0.030679 0.030097 0.029522 0.027748 0.023779 0.081564 0.099441 0.121102 0.146321 0.174414 0.204140 0.233709 0.260990 0.283927 0.301074 0.311975 0.317199 0.318025 0.316016 0.312753 0.309934 0.310297 0.322396 0.358121 0.382827 0.389187 0.393757 0.410090 0.449637 0.495046 0