# vtk DataFile Version 3.0
vtk output
ASCII
DATASET STRUCTURED_POINTS
DIMENSIONS 100 100 1
SPACING 0.020069 0.019836 0
ORIGIN -0.988457 -0.997219 0
POINT_DATA 10000
SCALARS RTData float
LOOKUP_TABLE default
-0.128972 -0.135928 -0.141694 -0.146131 -0.149120 -0.150521 -0.150099 -0.147426 -0.141853 -0.132756 -0.120318 -0.106593 -0.095299 -0.089426 -0.089092 -0.092089 -0.095813 -0.098616 -0.100015 -0.100054 -0.098522 -0.094513 -0.086462 -0.072793 -0.053510 -0.032348 -0.016486 -0.010562 -0.012032 -0.015551 -0.018136 -0.019352 -0.019720 -0.019652 -0.018984 -0.016812 -0.011539 -0.001228 0.015641 0.039171 0.067395 0.096622 0.122748 0.142681 0.155068 0.160182 0.159331 0.154238 0.146561 0.137655 0.128489 0.119660 0.111423 0.103648 0.095674 0.086032 0.072242 0.051789 0.025813 0.001241 -0.016140 -0.026592 -0.029761 -0.028919 -0.021852 -0.024836 -0.029180 -0.029446 -0.028278 -0.024920 -0.018560 -0.009225 0.002000 0.013129 0.021808 0.025976 0.024328 0.016508 0.003076 -0.014727 -0.035403 -0.057627 -0.080472 -0.103304 -0.125476 -0.146075 -0.163963 -0.178170 -0.188316 -0.194741 -0.198249 -0.199764 -0.200181 -0.200755 -0.203061 -0.203539 -0.203885 -0.204798 -0.204960 -0.204216 -0.135276 -0.142614 -0.148688 -0.153377 -0.156622 -0.158378 -0.158519 -0.156652 -0.151940 -0.143144 -0.129526 -0.112856 -0.098210 -0.090401 -0.089937 -0.093754 -0.098216 -0.101194 -0.102468 -0.102597 -0.101603 -0.098398 -0.090904 -0.076936 -0.056175 -0.032779 -0.015244 -0.009311 -0.011797 -0.016080 -0.018798 -0.019807 -0.019993 -0.019975 -0.019602 -0.017786 -0.012578 -0.001622 0.016848 0.042769 0.073573 0.104868 0.132135 0.152261 0.164117 0.168251 0.166222 0.159944 0.151215 0.141481 0.131778 0.122787 0.114895 0.108195 0.102334 0.096162 0.087052 0.070480 0.043842 0.015026 -0.004579 -0.012965 -0.011424 -0.006367 -0.009879 -0.026285 -0.030017 -0.030016 -0.029194 -0.025865 -0.018827 -0.008087 0.004916 0.017625 0.027239 0.031587 0.029528 0.020980 0.006822 -0.011380 -0.031894 -0.053397 -0.075239 -0.097259 -0.119276 -0.140589 -0.159862 -0.175619 -0.187017 -0.194213 -0.198097 -0.199736 -0.200032 -0.200064 -0.204279 -0.204115 -0.205279 -0.206828 -0.206703 -0.205748 -0.140294 -0.147923 -0.154179 -0.158948 -0.162231 -0.164113 -0.164643 -0.163590 -0.160088 -0.152347 -0.138330 -0.118798 -0.100172 -0.089809 -0.088938 -0.093700 -0.099235 -0.102486 -0.103485 -0.103567 -0.103008 -0.100377 -0.092948 -0.078029 -0.055480 -0.030233 -0.011569 -0.005874 -0.009715 -0.015314 -0.018691 -0.019846 -0.020008 -0.019999 -0.019645 -0.017610 -0.011550 0.001238 0.022506 0.051610 0.085081 0.117857 0.145320 0.164684 0.175229 0.177823 0.174227 0.166485 0.156474 0.145676 0.135135 0.125560 0.117437 0.111075 0.106478 0.103058 0.099069 0.090106 0.068769 0.037976 0.014422 0.004274 0.004216 0.004169 -0.000139 -0.023312 -0.029821 -0.029885 -0.028669 -0.024468 -0.015945 -0.003213 0.011761 0.025727 0.035569 0.039294 0.036113 0.026259 0.010937 -0.007892 -0.028171 -0.048539 -0.068669 -0.089002 -0.110060 -0.131648 -0.152397 -0.170217 -0.183522 -0.192065 -0.196743 -0.198922 -0.199796 -0.200425 -0.204022 -0.203931 -0.207452 -0.207935 -0.207631 -0.206636 -0.143904 -0.151769 -0.158125 -0.162842 -0.165969 -0.167723 -0.168370 -0.167933 -0.165691 -0.159493 -0.145841 -0.123722 -0.100687 -0.087196 -0.085299 -0.090808 -0.098217 -0.102673 -0.103681 -0.103708 -0.103340 -0.100571 -0.091943 -0.074650 -0.049688 -0.023202 -0.004220 0.001103 -0.004357 -0.012183 -0.017277 -0.019347 -0.019845 -0.019782 -0.018922 -0.015632 -0.007200 0.009164 0.034669 0.067536 0.103220 0.136324 0.162655 0.180117 0.188528 0.189034 0.183518 0.174076 0.162605 0.150556 0.138913 0.128323 0.119303 0.112339 0.107748 0.105312 0.104086 0.101899 0.091579 0.066216 0.043813 0.029343 0.012651 0.008801 0.007901 -0.011241 -0.025429 -0.027210 -0.024997 -0.018894 -0.007949 0.007294 0.023999 0.038241 0.047066 0.049104 0.044011 0.032206 0.015150 -0.004704 -0.024821 -0.043727 -0.061435 -0.079052 -0.097976 -0.118885 -0.140779 -0.161002 -0.176901 -0.187508 -0.193426 -0.195706 -0.194823 -0.192237 -0.193113 -0.200981 -0.207875 -0.208013 -0.207780 -0.206769 -0.146004 -0.154108 -0.160574 -0.165223 -0.168115 -0.169580 -0.170102 -0.169994 -0.168778 -0.164120 -0.151079 -0.126422 -0.098886 -0.082156 -0.078270 -0.082799 -0.091977 -0.100368 -0.103320 -0.103541 -0.102546 -0.097896 -0.085719 -0.064114 -0.036560 -0.010158 0.008118 0.013428 0.006928 -0.003807 -0.012142 -0.016473 -0.017974 -0.017730 -0.015431 -0.009209 0.003720 0.025602 0.056312 0.092530 0.128942 0.160536 0.184124 0.198520 0.204044 0.202004 0.194293 0.182993 0.169974 0.156618 0.143766 0.131903 0.121463 0.113096 0.107545 0.104931 0.104252 0.104437 0.103871 0.089940 0.069598 0.067465 0.067581 0.055293 0.035098 0.012186 -0.008130 -0.015071 -0.013333 -0.005464 0.008097 0.025456 0.042413 0.054917 0.061089 0.060486 0.052923 0.038618 0.019157 -0.002312 -0.022515 -0.039800 -0.054558 -0.068539 -0.083991 -0.102729 -0.124754 -0.147243 -0.166139 -0.179434 -0.187644 -0.191634 -0.192021 -0.191535 -0.191608 -0.196373 -0.206489 -0.207651 -0.207260 -0.206009 -0.146464 -0.154870 -0.161571 -0.166303 -0.169079 -0.170289 -0.170600 -0.170592 -0.170011 -0.166329 -0.153129 -0.125237 -0.093762 -0.074982 -0.069024 -0.069746 -0.074477 -0.084225 -0.094799 -0.098331 -0.096066 -0.087409 -0.069224 -0.042554 -0.014443 0.009152 0.025524 0.031989 0.027152 0.015110 0.002943 -0.005151 -0.008649 -0.008100 -0.003126 0.007956 0.027198 0.055327 0.090317 0.127620 0.162090 0.189909 0.209194 0.219582 0.221690 0.216810 0.206743 0.193520 0.178984 0.164440 0.150552 0.137530 0.125545 0.115237 0.107914 0.104541 0.103970 0.104192 0.110867 0.113346 0.082936 0.070116 0.069974 0.068411 0.057708 0.038624 0.019593 0.009595 0.009888 0.018640 0.033702 0.050813 0.064803 0.073083 0.075541 0.072205 0.062308 0.045281 0.022710 -0.001132 -0.021808 -0.037498 -0.049133 -0.059049 -0.070060 -0.084984 -0.105462 -0.129484 -0.151252 -0.166666 -0.176827 -0.184599 -0.189786 -0.191342 -0.191780 -0.194730 -0.201957 -0.205106 -0.205149 -0.203805 -0.145075 -0.153854 -0.160996 -0.166132 -0.169153 -0.170403 -0.170647 -0.170648 -0.170205 -0.166255 -0.150690 -0.118173 -0.084846 -0.066999 -0.061145 -0.059816 -0.059307 -0.059828 -0.064196 -0.072481 -0.074140 -0.062528 -0.037823 -0.009106 0.014251 0.031519 0.045075 0.054401 0.056061 0.048978 0.037262 0.026664 0.020912 0.021525 0.029309 0.045177 0.069579 0.101262 0.136710 0.171200 0.200672 0.222789 0.236757 0.242689 0.241213 0.233436 0.220993 0.205870 0.189944 0.174505 0.160075 0.146571 0.133713 0.121657 0.111688 0.105862 0.104279 0.106204 0.129150 0.136500 0.118745 0.075846 0.070781 0.070491 0.067344 0.058635 0.047528 0.040484 0.041480 0.050533 0.064164 0.076658 0.084506 0.087802 0.087335 0.082566 0.071455 0.052027 0.025719 -0.001340 -0.022888 -0.037107 -0.045839 -0.052005 -0.058547 -0.068645 -0.085657 -0.110147 -0.135183 -0.151757 -0.159674 -0.165169 -0.173769 -0.182855 -0.187383 -0.190802 -0.195791 -0.199478 -0.200435 -0.199459 -0.141530 -0.150635 -0.158357 -0.164266 -0.168079 -0.169937 -0.170493 -0.170461 -0.169277 -0.162625 -0.141092 -0.103862 -0.073057 -0.059441 -0.056081 -0.056242 -0.056346 -0.056275 -0.056452 -0.057104 -0.052150 -0.029713 0.002840 0.026948 0.040539 0.050224 0.061351 0.075179 0.087538 0.093063 0.091115 0.085351 0.080560 0.080730 0.088382 0.104607 0.128901 0.158748 0.189976 0.218329 0.240948 0.256637 0.265223 0.266923 0.262150 0.251706 0.237027 0.220103 0.202946 0.186964 0.172682 0.159878 0.147973 0.136517 0.125844 0.117789 0.116010 0.128410 0.139406 0.139544 0.138060 0.111413 0.085985 0.081478 0.080966 0.078777 0.074722 0.072102 0.074144 0.080805 0.088348 0.093255 0.095334 0.095656 0.094402 0.090167 0.079593 0.058701 0.028272 -0.002763 -0.025413 -0.038259 -0.044571 -0.047899 -0.050970 -0.056495 -0.068541 -0.091743 -0.121778 -0.142053 -0.148260 -0.148890 -0.150245 -0.156725 -0.168405 -0.178565 -0.185960 -0.190786 -0.192838 -0.192592 -0.135508 -0.144594 -0.152659 -0.159353 -0.164304 -0.167313 -0.168521 -0.167953 -0.163859 -0.150591 -0.121512 -0.084824 -0.061216 -0.052697 -0.051681 -0.054382 -0.056112 -0.056235 -0.056187 -0.054245 -0.037656 0.004612 0.038142 0.051055 0.055793 0.060382 0.070690 0.090440 0.115116 0.134716 0.145100 0.148372 0.148319 0.149140 0.154979 0.168565 0.189781 0.215460 0.241001 0.262673 0.278674 0.288647 0.292748 0.291096 0.283776 0.271217 0.254636 0.236071 0.217797 0.201507 0.187906 0.176891 0.168043 0.161188 0.157052 0.157934 0.165544 0.166027 0.144988 0.140038 0.141400 0.138314 0.122700 0.111980 0.108316 0.106697 0.104770 0.102744 0.101425 0.100600 0.099645 0.098740 0.098186 0.097855 0.097209 0.094651 0.086070 0.065036 0.030575 -0.004853 -0.028567 -0.040095 -0.044558 -0.046124 -0.047180 -0.049535 -0.056406 -0.075167 -0.110154 -0.138177 -0.145889 -0.146450 -0.146471 -0.147485 -0.152957 -0.163217 -0.172982 -0.179517 -0.182757 -0.183322 -0.126915 -0.135257 -0.142729 -0.149139 -0.154175 -0.157351 -0.157881 -0.154280 -0.143997 -0.124705 -0.096869 -0.068774 -0.052971 -0.048078 -0.047370 -0.049509 -0.054750 -0.055989 -0.055511 -0.049333 -0.015197 0.036827 0.056346 0.059939 0.060793 0.063339 0.074169 0.101241 0.138198 0.166442 0.181034 0.187223 0.189896 0.192897 0.200281 0.215163 0.236989 0.261308 0.283105 0.299676 0.310619 0.316443 0.317538 0.313857 0.305110 0.291306 0.273382 0.253428 0.234079 0.217461 0.204586 0.195556 0.190168 0.188541 0.191470 0.199572 0.209482 0.214155 0.205401 0.174556 0.169905 0.173039 0.166463 0.155532 0.147601 0.142742 0.138171 0.131217 0.120770 0.109525 0.102004 0.098833 0.097927 0.097775 0.097750 0.096731 0.090581 0.070592 0.032855 -0.006753 -0.031334 -0.041730 -0.044924 -0.045582 -0.045808 -0.046687 -0.049853 -0.061571 -0.095869 -0.134111 -0.145435 -0.146384 -0.146392 -0.146587 -0.148579 -0.154236 -0.161743 -0.167855 -0.171294 -0.172179 -0.116226 -0.123010 -0.128537 -0.132520 -0.134471 -0.133572 -0.128766 -0.119795 -0.108546 -0.096459 -0.080565 -0.061018 -0.049341 -0.046444 -0.046093 -0.046224 -0.048550 -0.052308 -0.050404 -0.034200 0.015276 0.053729 0.060903 0.061400 0.061501 0.063450 0.075753 0.112022 0.159379 0.187577 0.198119 0.201805 0.204186 0.208846 0.220106 0.241054 0.268620 0.294984 0.314870 0.327754 0.335174 0.338480 0.338153 0.333898 0.325026 0.311081 0.292619 0.271687 0.251297 0.234111 0.221519 0.213736 0.210408 0.210991 0.214425 0.218190 0.219310 0.219040 0.219094 0.224002 0.228525 0.222140 0.210687 0.198651 0.189212 0.181932 0.173064 0.157832 0.135210 0.113596 0.101814 0.098151 0.097544 0.097525 0.097676 0.097527 0.093350 0.074952 0.035342 -0.007443 -0.032832 -0.042639 -0.045172 -0.045445 -0.045436 -0.046047 -0.047512 -0.052969 -0.078462 -0.123791 -0.143307 -0.146122 -0.146326 -0.146395 -0.147162 -0.149645 -0.153529 -0.157173 -0.159329 -0.159666 -0.104563 -0.109531 -0.112599 -0.113283 -0.111049 -0.105725 -0.098479 -0.091999 -0.087914 -0.084735 -0.077527 -0.061168 -0.048749 -0.046188 -0.046037 -0.046040 -0.046203 -0.045975 -0.039017 -0.012022 0.034890 0.058206 0.061368 0.061448 0.061521 0.063800 0.079879 0.127447 0.178524 0.199023 0.203595 0.204629 0.205981 0.210930 0.225754 0.255207 0.291351 0.320207 0.337684 0.347088 0.351985 0.354134 0.353785 0.350268 0.342503 0.329573 0.311559 0.290278 0.269011 0.250990 0.238052 0.230512 0.227773 0.228672 0.231181 0.231886 0.227290 0.221254 0.224916 0.246679 0.247424 0.244209 0.237592 0.231049 0.226133 0.220421 0.208961 0.186012 0.151465 0.119276 0.102669 0.098045 0.097492 0.097489 0.097672 0.098006 0.095105 0.078184 0.038451 -0.005901 -0.032408 -0.042608 -0.045208 -0.045441 -0.045401 -0.047039 -0.047216 -0.049306 -0.064614 -0.105296 -0.135269 -0.143518 -0.145046 -0.145125 -0.144968 -0.145151 -0.145806 -0.146484 -0.146608 -0.145847 -0.093235 -0.096994 -0.098621 -0.097849 -0.094815 -0.090548 -0.086871 -0.084940 -0.084291 -0.083777 -0.080833 -0.067518 -0.050711 -0.046381 -0.046040 -0.045987 -0.045405 -0.041584 -0.027678 0.004320 0.041974 0.058572 0.061314 0.061493 0.061970 0.066870 0.091742 0.148777 0.192354 0.203369 0.204405 0.204444 0.205057 0.209516 0.227581 0.267412 0.311952 0.339863 0.352589 0.358246 0.361473 0.363681 0.364489 0.362715 0.356959 0.345987 0.329406 0.308605 0.286877 0.267946 0.254161 0.246067 0.243065 0.244077 0.247862 0.253553 0.262230 0.275538 0.272641 0.248319 0.248325 0.249031 0.251057 0.255732 0.259874 0.258503 0.247064 0.220261 0.177135 0.133112 0.107642 0.099286 0.097733 0.097664 0.098171 0.099152 0.097138 0.081387 0.043164 -0.001139 -0.029408 -0.041322 -0.044934 -0.045703 -0.046543 -0.047231 -0.047234 -0.048420 -0.057887 -0.086755 -0.118982 -0.134413 -0.139232 -0.140011 -0.139080 -0.137377 -0.135519 -0.133822 -0.132256 -0.130621 -0.083030 -0.086603 -0.088327 -0.088268 -0.086956 -0.085381 -0.084429 -0.084184 -0.084185 -0.084137 -0.083086 -0.074801 -0.056018 -0.047227 -0.045758 -0.045074 -0.042717 -0.034917 -0.016101 0.015045 0.044727 0.058606 0.061960 0.062943 0.065963 0.079019 0.117591 0.172773 0.200795 0.204677 0.204369 0.204322 0.204624 0.209281 0.232865 0.285198 0.332828 0.353670 0.359749 0.362072 0.364751 0.368295 0.371300 0.371879 0.368506 0.359954 0.345537 0.326093 0.304606 0.285033 0.270214 0.261042 0.257119 0.257698 0.262345 0.271270 0.283403 0.290526 0.290857 0.264574 0.252194 0.255952 0.268666 0.285665 0.296406 0.297135 0.286762 0.261541 0.217539 0.163873 0.124029 0.106161 0.100785 0.099964 0.101119 0.103192 0.101977 0.087176 0.051410 0.008059 -0.022800 -0.037941 -0.043727 -0.045709 -0.046697 -0.047117 -0.047277 -0.048593 -0.055608 -0.074820 -0.100418 -0.118115 -0.125948 -0.127832 -0.126542 -0.123774 -0.120758 -0.118194 -0.116213 -0.114617 -0.073916 -0.078126 -0.080928 -0.082485 -0.083204 -0.083584 -0.083910 -0.084139 -0.084197 -0.084187 -0.083551 -0.077871 -0.061358 -0.047817 -0.043052 -0.039894 -0.033757 -0.021093 0.000174 0.027155 0.050327 0.062814 0.067970 0.072621 0.084153 0.113147 0.161202 0.200238 0.210342 0.206766 0.204645 0.204405 0.205262 0.213471 0.248927 0.311624 0.351044 0.360487 0.360279 0.360466 0.363748 0.370077 0.376261 0.379253 0.377930 0.371616 0.359629 0.342273 0.321918 0.302364 0.286746 0.276308 0.270872 0.269821 0.272671 0.278813 0.285897 0.289798 0.289815 0.280910 0.270782 0.282750 0.308418 0.327377 0.334123 0.332036 0.322598 0.303472 0.268808 0.217132 0.164551 0.130770 0.115963 0.111703 0.112638 0.115413 0.114320 0.099781 0.066166 0.023560 -0.010823 -0.030815 -0.040224 -0.044222 -0.045946 -0.046694 -0.047241 -0.048955 -0.054797 -0.067876 -0.085304 -0.099311 -0.106578 -0.108456 -0.107283 -0.105022 -0.102913 -0.101418 -0.100473 -0.099819 -0.065267 -0.070514 -0.074721 -0.077969 -0.080411 -0.082185 -0.083350 -0.083945 -0.084124 -0.084037 -0.082900 -0.076777 -0.060748 -0.042872 -0.031603 -0.022478 -0.010440 0.006218 0.026362 0.047155 0.064890 0.077534 0.087815 0.102484 0.130355 0.174465 0.217283 0.238010 0.234999 0.219298 0.209402 0.207505 0.211275 0.230127 0.282211 0.341386 0.364091 0.362520 0.357674 0.356994 0.361314 0.372589 0.382543 0.386792 0.386290 0.381430 0.371674 0.356857 0.338554 0.320010 0.304312 0.292934 0.285887 0.282562 0.282264 0.284145 0.286785 0.288545 0.288902 0.290712 0.306599 0.336251 0.355342 0.361303 0.360626 0.355679 0.347536 0.335766 0.315447 0.279591 0.230433 0.185461 0.157746 0.145696 0.143057 0.143672 0.140148 0.123964 0.090928 0.047991 0.009150 -0.017293 -0.032117 -0.039570 -0.043166 -0.044945 -0.046215 -0.048417 -0.053535 -0.062787 -0.073937 -0.082621 -0.086919 -0.087916 -0.087546 -0.087174 -0.087291 -0.087795 -0.088381 -0.088788 -0.056223 -0.062555 -0.068114 -0.072864 -0.076762 -0.079746 -0.081774 -0.082898 -0.083253 -0.082725 -0.079896 -0.070479 -0.050122 -0.024338 -0.001861 0.017310 0.035133 0.051227 0.065026 0.077476 0.090140 0.104458 0.123261 0.151718 0.192413 0.234727 0.261842 0.272105 0.271116 0.258013 0.237293 0.227999 0.236068 0.268980 0.325684 0.366782 0.376588 0.367264 0.356290 0.355638 0.362532 0.383914 0.393843 0.395750 0.394182 0.389788 0.381860 0.369794 0.354364 0.337979 0.323333 0.311954 0.304040 0.299091 0.296433 0.295440 0.295710 0.297676 0.304374 0.323352 0.352411 0.369146 0.373196 0.373495 0.371797 0.366689 0.359478 0.353161 0.344225 0.325775 0.293475 0.254511 0.222937 0.204504 0.195989 0.190912 0.181907 0.162078 0.128016 0.083758 0.039961 0.005902 -0.016178 -0.028947 -0.035938 -0.039824 -0.042499 -0.045615 -0.050686 -0.058032 -0.065655 -0.070920 -0.073304 -0.074131 -0.074838 -0.076170 -0.078149 -0.080269 -0.081944 -0.082882 -0.045943 -0.053163 -0.059805 -0.065748 -0.070829 -0.074866 -0.077714 -0.079292 -0.079450 -0.077440 -0.070768 -0.054258 -0.024002 0.013928 0.048384 0.074323 0.091390 0.101086 0.106235 0.110673 0.118879 0.134900 0.161304 0.198020 0.237776 0.266844 0.280142 0.284041 0.284486 0.282303 0.274463 0.267683 0.280375 0.318138 0.361839 0.385289 0.391800 0.391078 0.370893 0.362320 0.399489 0.410146 0.408060 0.404726 0.401174 0.396784 0.390467 0.381311 0.369425 0.356308 0.344018 0.333986 0.326647 0.321813 0.319141 0.318515 0.320475 0.326795 0.340193 0.359019 0.371781 0.374874 0.375077 0.375473 0.374847 0.369340 0.361233 0.358213 0.355525 0.348015 0.330862 0.305819 0.282318 0.266198 0.255856 0.246506 0.232917 0.210282 0.175618 0.130566 0.082640 0.041010 0.010501 -0.009390 -0.021598 -0.029157 -0.034544 -0.039784 -0.046285 -0.053944 -0.060849 -0.065243 -0.067284 -0.068268 -0.069401 -0.071527 -0.074820 -0.078286 -0.080667 -0.081606 -0.033731 -0.041457 -0.048738 -0.055399 -0.061196 -0.065841 -0.069021 -0.070352 -0.069104 -0.063526 -0.049796 -0.022382 0.019598 0.064764 0.099079 0.119032 0.128464 0.131900 0.132551 0.133532 0.139739 0.157251 0.188419 0.227020 0.260006 0.278309 0.284493 0.285614 0.285682 0.285580 0.285808 0.293099 0.319916 0.359215 0.387276 0.396870 0.399256 0.400764 0.400798 0.412447 0.421550 0.420373 0.415849 0.410723 0.406382 0.402432 0.397933 0.391958 0.384163 0.375204 0.366422 0.359054 0.353806 0.350960 0.350679 0.353268 0.359201 0.368391 0.378041 0.381875 0.378480 0.375462 0.375039 0.375814 0.375466 0.366726 0.358812 0.358119 0.357880 0.355519 0.347127 0.332854 0.319234 0.309634 0.302024 0.293100 0.279622 0.258236 0.226078 0.182996 0.133772 0.086611 0.048079 0.020074 0.000944 -0.012216 -0.022280 -0.031611 -0.041507 -0.051388 -0.059217 -0.063757 -0.065672 -0.066410 -0.067262 -0.069645 -0.074657 -0.080075 -0.083015 -0.083509 -0.019122 -0.026829 -0.034143 -0.040838 -0.046597 -0.050993 -0.053465 -0.053171 -0.048642 -0.037155 -0.014483 0.022376 0.067602 0.105976 0.128467 0.138221 0.141535 0.142288 0.142175 0.142943 0.149050 0.167942 0.202360 0.241306 0.269219 0.281892 0.285293 0.285688 0.285693 0.285866 0.289203 0.308912 0.354366 0.397011 0.413802 0.409642 0.402324 0.400955 0.401122 0.414631 0.421301 0.420502 0.417365 0.413274 0.409768 0.407161 0.405039 0.402671 0.399412 0.395184 0.390631 0.386754 0.384490 0.384563 0.387555 0.393870 0.403236 0.413458 0.419211 0.413528 0.395920 0.380978 0.376679 0.376320 0.376063 0.362971 0.357966 0.357907 0.358063 0.357570 0.353318 0.345166 0.337923 0.332762 0.327942 0.321687 0.311841 0.295467 0.269366 0.231911 0.185476 0.136597 0.092399 0.056783 0.029818 0.009359 -0.007344 -0.022566 -0.037152 -0.049975 -0.059062 -0.063796 -0.065422 -0.065718 -0.065996 -0.068224 -0.076560 -0.084897 -0.087534 -0.086986 -0.001951 -0.009036 -0.015670 -0.021576 -0.026349 -0.029410 -0.029929 -0.026660 -0.017680 -0.000267 0.028044 0.065542 0.102508 0.127723 0.139489 0.143292 0.144119 0.144207 0.144206 0.145224 0.151450 0.171122 0.207774 0.247607 0.273395 0.283671 0.285917 0.285962 0.285999 0.287331 0.296831 0.333865 0.395756 0.437474 0.450465 0.442985 0.419572 0.405531 0.404423 0.412080 0.418194 0.418399 0.416530 0.414156 0.412458 0.412076 0.413045 0.414803 0.416401 0.417103 0.416933 0.416652 0.417311 0.419883 0.425128 0.433458 0.444506 0.456442 0.465772 0.467684 0.455889 0.429557 0.404930 0.393153 0.385221 0.364940 0.358241 0.357991 0.358368 0.358558 0.355896 0.350742 0.346271 0.342198 0.338233 0.334240 0.328576 0.318245 0.299643 0.270014 0.229692 0.183134 0.136786 0.095557 0.061159 0.032764 0.008495 -0.013206 -0.032547 -0.048223 -0.058689 -0.063858 -0.065381 -0.065447 -0.065419 -0.067140 -0.082720 -0.091616 -0.092147 -0.090374 0.017583 0.011709 0.006448 0.002128 -0.000779 -0.001600 0.000603 0.007117 0.019553 0.039398 0.066488 0.096604 0.121825 0.136732 0.142696 0.144179 0.144347 0.144350 0.144424 0.145607 0.152171 0.172650 0.210844 0.251928 0.277746 0.287473 0.289175 0.289018 0.290115 0.296479 0.320202 0.376336 0.437087 0.466308 0.474828 0.475053 0.464186 0.435618 0.417487 0.414561 0.416013 0.416566 0.416098 0.415649 0.416304 0.418901 0.423699 0.430079 0.436658 0.442076 0.445871 0.448614 0.451373 0.455121 0.460500 0.467857 0.477265 0.488210 0.499035 0.506874 0.508085 0.499576 0.487593 0.461874 0.422534 0.380534 0.362840 0.360043 0.360307 0.360324 0.357584 0.353983 0.350323 0.344778 0.339561 0.336876 0.334596 0.329359 0.317449 0.295548 0.262588 0.221056 0.175883 0.131806 0.091601 0.056016 0.024683 -0.002804 -0.026174 -0.044474 -0.056792 -0.063214 -0.065292 -0.065433 -0.065395 -0.068857 -0.092762 -0.095162 -0.094564 -0.092369 0.038915 0.034713 0.031352 0.029183 0.028679 0.030461 0.035295 0.044026 0.057349 0.075275 0.096257 0.116651 0.132054 0.140496 0.143623 0.144299 0.144352 0.144355 0.144523 0.146225 0.154197 0.176943 0.217303 0.260116 0.287659 0.298769 0.301440 0.302965 0.308921 0.326852 0.367015 0.423198 0.462876 0.476945 0.479913 0.480208 0.478843 0.466969 0.442366 0.426150 0.420423 0.418910 0.418876 0.420155 0.423519 0.429785 0.439111 0.450472 0.461851 0.471325 0.478149 0.482880 0.486644 0.490279 0.493973 0.497582 0.501406 0.506404 0.512541 0.517345 0.518785 0.508422 0.504418 0.498182 0.467904 0.416261 0.381523 0.369795 0.366358 0.363301 0.359316 0.357429 0.355084 0.345535 0.336095 0.334904 0.335318 0.333690 0.326661 0.310950 0.284847 0.249393 0.207726 0.163467 0.119659 0.078512 0.041517 0.009632 -0.016620 -0.037065 -0.051677 -0.060571 -0.064588 -0.065703 -0.066656 -0.079358 -0.095051 -0.095433 -0.094978 -0.092454 0.061176 0.058891 0.057670 0.057846 0.059810 0.063980 0.070728 0.080232 0.092262 0.105949 0.119682 0.131373 0.139300 0.143205 0.144400 0.144509 0.144452 0.144518 0.145166 0.148438 0.159842 0.187500 0.232057 0.277928 0.309115 0.324437 0.331470 0.338693 0.353813 0.383285 0.425140 0.461623 0.477908 0.480271 0.480275 0.480298 0.479970 0.475286 0.460084 0.442192 0.431400 0.427108 0.426826 0.429763 0.436314 0.447014 0.461510 0.477968 0.493576 0.505976 0.514434 0.519818 0.523603 0.526671 0.528622 0.528071 0.524216 0.519202 0.517268 0.518497 0.519281 0.506989 0.504557 0.502818 0.487069 0.449254 0.410286 0.387673 0.375418 0.366126 0.361013 0.361022 0.362339 0.351997 0.331729 0.332677 0.334791 0.335251 0.331215 0.319820 0.299363 0.270044 0.233250 0.190870 0.145463 0.100384 0.059152 0.024318 -0.003331 -0.024592 -0.040779 -0.052611 -0.060218 -0.064565 -0.069307 -0.081968 -0.092969 -0.094641 -0.093239 -0.089226 0.083336 0.082951 0.083789 0.086116 0.090182 0.096139 0.103943 0.113224 0.123213 0.132792 0.140713 0.145957 0.148173 0.148029 0.146916 0.145965 0.145590 0.145986 0.148061 0.154791 0.172490 0.208172 0.259239 0.309555 0.345620 0.366955 0.380351 0.394012 0.415184 0.446208 0.478725 0.498979 0.500920 0.489627 0.481918 0.480605 0.480233 0.477459 0.468542 0.455560 0.445116 0.440145 0.440464 0.445830 0.456545 0.472657 0.492877 0.514225 0.533059 0.546819 0.555102 0.559458 0.562234 0.565008 0.567353 0.566611 0.558926 0.542901 0.526308 0.519114 0.517200 0.510033 0.505578 0.502998 0.492036 0.466347 0.433263 0.405166 0.383915 0.368732 0.362282 0.362600 0.364599 0.364357 0.331938 0.333016 0.335427 0.336466 0.333829 0.325224 0.309391 0.286062 0.254900 0.215719 0.170004 0.121895 0.077107 0.040207 0.012588 -0.007316 -0.022366 -0.034942 -0.045762 -0.054229 -0.060335 -0.065267 -0.071443 -0.078022 -0.079909 -0.078141 0.104371 0.105644 0.108181 0.112160 0.117669 0.124629 0.132708 0.141275 0.149458 0.156303 0.160973 0.162895 0.161910 0.158644 0.154713 0.151825 0.150769 0.151982 0.156955 0.169600 0.196514 0.242383 0.300574 0.354527 0.393498 0.418098 0.434081 0.448215 0.467110 0.492860 0.517751 0.532820 0.536886 0.528506 0.506242 0.490874 0.485944 0.482358 0.475926 0.467128 0.459654 0.456672 0.459582 0.469057 0.485455 0.508091 0.534354 0.559967 0.580669 0.594007 0.600069 0.601237 0.601214 0.603171 0.607738 0.612398 0.612166 0.599890 0.570403 0.538508 0.522235 0.513928 0.508707 0.504246 0.494784 0.475860 0.448999 0.419967 0.393111 0.373090 0.363707 0.362177 0.363020 0.360130 0.342749 0.337583 0.338079 0.338400 0.336097 0.329457 0.317854 0.300496 0.275313 0.239990 0.194482 0.143271 0.094481 0.055323 0.028280 0.011379 0.000553 -0.008697 -0.020446 -0.035776 -0.048035 -0.051348 -0.051369 -0.052868 -0.057679 -0.062123 0.123427 0.125967 0.129686 0.134656 0.140826 0.147956 0.155583 0.163057 0.169669 0.174826 0.178157 0.179459 0.178563 0.175401 0.170634 0.166196 0.164349 0.166834 0.176023 0.196425 0.233821 0.289170 0.351550 0.404611 0.440786 0.462435 0.475073 0.484403 0.497051 0.517315 0.537524 0.548473 0.552015 0.551841 0.545235 0.525890 0.507075 0.495705 0.487323 0.480212 0.475853 0.476556 0.484126 0.499690 0.523350 0.553275 0.585272 0.613988 0.635079 0.646529 0.648737 0.644446 0.638649 0.636841 0.641372 0.649823 0.657439 0.659569 0.649342 0.614472 0.566453 0.536013 0.521428 0.512653 0.502724 0.487249 0.464898 0.437105 0.407471 0.382556 0.367912 0.362211 0.360080 0.356166 0.348564 0.343519 0.342081 0.341302 0.338938 0.334133 0.326682 0.315018 0.295735 0.264653 0.219636 0.164713 0.110583 0.067934 0.040737 0.026584 0.020464 0.016868 0.009194 -0.012103 -0.041171 -0.050226 -0.050617 -0.050649 -0.051401 -0.053206 0.139913 0.143296 0.147659 0.152972 0.159071 0.165631 0.172167 0.178133 0.183060 0.186695 0.189033 0.190210 0.190334 0.189352 0.187227 0.184727 0.184230 0.189180 0.203543 0.232195 0.278952 0.340063 0.401010 0.447196 0.475183 0.489752 0.496815 0.501101 0.508144 0.524906 0.543929 0.552143 0.553672 0.553718 0.552586 0.544791 0.528767 0.513207 0.502298 0.495965 0.494794 0.500316 0.514160 0.537287 0.568961 0.605761 0.641996 0.671965 0.692098 0.701191 0.699533 0.688938 0.674362 0.663960 0.663093 0.668927 0.674955 0.677774 0.677235 0.667992 0.634136 0.586372 0.553565 0.535399 0.522415 0.508114 0.488908 0.463373 0.432813 0.402805 0.380506 0.367954 0.361561 0.356942 0.352364 0.348890 0.346896 0.345049 0.342376 0.339205 0.335206 0.328310 0.314637 0.288522 0.244977 0.186211 0.125379 0.077700 0.048968 0.035900 0.032235 0.032254 0.031326 0.020993 -0.020930 -0.048458 -0.050523 -0.050379 -0.049753 -0.048905 0.153519 0.157392 0.161970 0.167128 0.172631 0.178120 0.183171 0.187390 0.190546 0.192635 0.193849 0.194460 0.194699 0.194717 0.194678 0.195218 0.198351 0.207977 0.229145 0.266583 0.321093 0.383962 0.438904 0.475125 0.493767 0.501579 0.504387 0.505658 0.508641 0.521414 0.542812 0.552144 0.553642 0.553697 0.552983 0.548738 0.538762 0.526585 0.517389 0.513719 0.516888 0.528283 0.549241 0.580098 0.618788 0.660184 0.697710 0.726401 0.744355 0.751626 0.748341 0.734154 0.710964 0.687848 0.676293 0.676023 0.678570 0.679521 0.679535 0.677597 0.663365 0.629751 0.594967 0.572001 0.556809 0.542985 0.526358 0.504225 0.475245 0.441720 0.410519 0.387843 0.374065 0.365891 0.360485 0.356447 0.352627 0.348317 0.344679 0.342514 0.340747 0.337385 0.328869 0.308646 0.268492 0.207102 0.139295 0.085743 0.054379 0.040701 0.037071 0.037313 0.037862 0.036957 0.020429 -0.030122 -0.046174 -0.047463 -0.046038 -0.043561 0.164155 0.168309 0.172862 0.177612 0.182274 0.186513 0.190007 0.192557 0.194152 0.194975 0.195304 0.195399 0.195431 0.195516 0.195901 0.197473 0.202728 0.216520 0.244892 0.291558 0.352896 0.415313 0.462952 0.490052 0.501579 0.505141 0.505882 0.506054 0.506944 0.513997 0.535272 0.549571 0.552765 0.553065 0.552110 0.548916 0.542850 0.535967 0.531931 0.533563 0.542600 0.560408 0.587969 0.624800 0.667460 0.709581 0.744690 0.769447 0.784010 0.789913 0.787731 0.775619 0.750351 0.715648 0.688923 0.679641 0.679092 0.679505 0.679507 0.678296 0.670683 0.652428 0.631693 0.615866 0.602752 0.589432 0.574979 0.557827 0.534585 0.502834 0.465546 0.430909 0.405161 0.388317 0.377009 0.367580 0.357813 0.349329 0.344838 0.343345 0.342766 0.341581 0.337079 0.322675 0.287500 0.225737 0.152435 0.093672 0.059450 0.044014 0.038965 0.038231 0.038332 0.038308 0.034791 0.007040 -0.024559 -0.034515 -0.035427 -0.033332 0.171844 0.176245 0.180758 0.185105 0.188970 0.192062 0.194193 0.195366 0.195776 0.195743 0.195568 0.195435 0.195387 0.195410 0.195683 0.197173 0.202820 0.218685 0.252447 0.307091 0.373972 0.435116 0.476523 0.497154 0.504392 0.505892 0.505976 0.505974 0.506278 0.510092 0.525901 0.543641 0.550071 0.551347 0.550818 0.549099 0.546880 0.546018 0.548942 0.557536 0.573002 0.596315 0.628086 0.667269 0.709639 0.748490 0.778249 0.797389 0.807748 0.811988 0.811524 0.804998 0.786917 0.751703 0.710842 0.687089 0.680318 0.679373 0.679104 0.677930 0.674716 0.671044 0.668613 0.663284 0.651726 0.636084 0.621557 0.609436 0.594955 0.571765 0.536749 0.494428 0.454955 0.424516 0.401561 0.381240 0.362186 0.349223 0.344211 0.343184 0.343062 0.342816 0.340680 0.330589 0.300200 0.239846 0.163842 0.102265 0.066313 0.048923 0.041434 0.038853 0.038370 0.038294 0.036732 0.025660 0.004928 -0.009636 -0.015409 -0.016356 0.176605 0.181390 0.186059 0.190249 0.193601 0.195860 0.196965 0.197104 0.196660 0.196059 0.195606 0.195398 0.195358 0.195361 0.195531 0.196903 0.202730 0.219913 0.257378 0.317557 0.387723 0.447125 0.484090 0.500812 0.505709 0.506173 0.505994 0.505978 0.506414 0.510441 0.523613 0.540007 0.548444 0.551223 0.552259 0.553419 0.556247 0.562425 0.573172 0.588836 0.609421 0.635334 0.667194 0.704193 0.742315 0.775306 0.798666 0.812167 0.818528 0.820856 0.821055 0.818977 0.810887 0.788311 0.748325 0.709511 0.689258 0.682652 0.681174 0.682415 0.689116 0.701351 0.709461 0.707129 0.692918 0.670363 0.651611 0.642061 0.634946 0.622285 0.597207 0.556943 0.509071 0.465938 0.431097 0.399546 0.369998 0.350632 0.344004 0.343071 0.343050 0.343028 0.341870 0.333935 0.306319 0.247520 0.171620 0.110560 0.075446 0.058046 0.049076 0.043934 0.041523 0.041491 0.042387 0.039608 0.030307 0.018936 0.0