# vtk DataFile Version 3.0
vtk output
ASCII
DATASET STRUCTURED_POINTS
DIMENSIONS 50 50 50
SPACING 0.020408 0.020408 0.020408
ORIGIN 0.000000 0.000000 0.000000
POINT_DATA 125000
SCALARS RTData float
LOOKUP_TABLE default
0.000000 0.000000 0.000001 0.000006 0.000019 0.000047 0.000101 0.000194 0.000343 0.000569 0.000898 0.001361 0.001993 0.002837 0.003941 0.005359 0.007151 0.009382 0.012126 0.015457 0.019457 0.024206 0.029790 0.036288 0.043780 0.052336 0.062018 0.072877 0.084949 0.098250 0.112780 0.128516 0.145413 0.163406 0.182408 0.202313 0.222999 0.244332 0.266166 0.288352 0.310740 0.333182 0.355535 0.377667 0.399456 0.420796 0.441592 0.461765 0.481251 0.500000 0.000000 0.000000 0.000002 0.000007 0.000021 0.000051 0.000108 0.000204 0.000357 0.000588 0.000924 0.001394 0.002037 0.002894 0.004013 0.005448 0.007260 0.009516 0.012286 0.015648 0.019681 0.024467 0.030089 0.036627 0.044160 0.052756 0.062479 0.073375 0.085480 0.098811 0.113364 0.129116 0.146022 0.164016 0.183010 0.202899 0.223561 0.244863 0.266660 0.288804 0.311146 0.333539 0.355842 0.377923 0.399664 0.420955 0.441706 0.461837 0.481285 0.500000 0.000001 0.000002 0.000004 0.000012 0.000029 0.000064 0.000127 0.000231 0.000393 0.000637 0.000986 0.001475 0.002138 0.003018 0.004164 0.005631 0.007479 0.009774 0.012588 0.015997 0.020081 0.024921 0.030598 0.037194 0.044783 0.053436 0.063210 0.074155 0.086302 0.099667 0.114246 0.130013 0.146924 0.164912 0.183888 0.203749 0.224372 0.245625 0.267366 0.289448 0.311723 0.334045 0.356276 0.378286 0.399957 0.421181 0.441868 0.461940 0.481334 0.500000 0.000005 0.000007 0.000012 0.000023 0.000046 0.000089 0.000162 0.000278 0.000456 0.000718 0.001091 0.001605 0.002299 0.003215 0.004401 0.005913 0.007811 0.010161 0.013035 0.016509 0.020661 0.025572 0.031323 0.037992 0.045653 0.054375 0.064214 0.075217 0.087413 0.100817 0.115422 0.131204 0.148115 0.166088 0.185036 0.204855 0.225424 0.246612 0.268278 0.290277 0.312464 0.334695 0.356834 0.378751 0.400332 0.421470 0.442075 0.462072 0.481396 0.500000 0.000017 0.000019 0.000028 0.000045 0.000076 0.000130 0.000217 0.000351 0.000552 0.000840 0.001243 0.001793 0.002528 0.003491 0.004730 0.006301 0.008264 0.010685 0.013636 0.017191 0.021428 0.026427 0.032267 0.039025 0.046773 0.055576 0.065490 0.076559 0.088810 0.102255 0.116888 0.132681 0.149586 0.167536 0.186445 0.206208 0.226707 0.247812 0.269384 0.291282 0.313360 0.335480 0.357506 0.379312 0.400784 0.421818 0.442325 0.462231 0.481472 0.500000 0.000041 0.000046 0.000059 0.000084 0.000126 0.000195 0.000300 0.000458 0.000686 0.001008 0.001451 0.002047 0.002834 0.003855 0.005160 0.006804 0.008847 0.011355 0.014398 0.018051 0.022389 0.027492 0.033436 0.040296 0.048143 0.057039 0.067037 0.078178 0.090488 0.103977 0.118635 0.134434 0.151327 0.169245 0.188102 0.207795 0.228209 0.249214 0.270674 0.292451 0.314402 0.336391 0.358286 0.379962 0.401307 0.422221 0.442615 0.462414 0.481559 0.500000 0.000085 0.000093 0.000112 0.000148 0.000204 0.000291 0.000421 0.000608 0.000871 0.001234 0.001725 0.002376 0.003226 0.004319 0.005703 0.007433 0.009571 0.012180 0.015331 0.019096 0.023551 0.028772 0.034834 0.041809 0.049766 0.058763 0.068852 0.080070 0.092441 0.105972 0.120652 0.136452 0.153324 0.171199 0.189992 0.209602 0.229913 0.250802 0.272133 0.293770 0.315577 0.337417 0.359163 0.380692 0.401896 0.422673 0.442939 0.462621 0.481657 0.500000 0.000158 0.000170 0.000198 0.000246 0.000321 0.000431 0.000589 0.000811 0.001116 0.001529 0.002077 0.002794 0.003718 0.004894 0.006370 0.008201 0.010446 0.013172 0.016444 0.020336 0.024921 0.030273 0.036464 0.043565 0.051640 0.060746 0.070929 0.082226 0.094658 0.108228 0.122926 0.138719 0.155560 0.173381 0.192097 0.211609 0.231803 0.252558 0.273744 0.295226 0.316870 0.338546 0.360126 0.381494 0.402541 0.423169 0.443295 0.462847 0.481764 0.500000 0.000270 0.000289 0.000328 0.000392 0.000488 0.000626 0.000818 0.001082 0.001437 0.001907 0.002522 0.003315 0.004324 0.005594 0.007174 0.009119 0.011486 0.014340 0.017748 0.021780 0.026506 0.032000 0.038330 0.045564 0.053763 0.062980 0.073261 0.084636 0.097125 0.110730 0.125438 0.141216 0.158016 0.175770 0.194395 0.213795 0.233857 0.254464 0.275488 0.296799 0.318266 0.339763 0.361164 0.382357 0.403235 0.423702 0.443678 0.463089 0.481879 0.500000 0.000434 0.000461 0.000514 0.000597 0.000719 0.000890 0.001123 0.001435 0.001847 0.002384 0.003074 0.003953 0.005059 0.006435 0.008131 0.010201 0.012702 0.015697 0.019251 0.023433 0.028310 0.033954 0.040429 0.047801 0.056127 0.065457 0.075833 0.087284 0.099825 0.113458 0.128166 0.143919 0.160665 0.178340 0.196862 0.216135 0.236052 0.256496 0.277344 0.298471 0.319748 0.341052 0.362263 0.383270 0.403968 0.424266 0.444081 0.463345 0.482000 0.500000 0.000663 0.000701 0.000771 0.000878 0.001030 0.001239 0.001519 0.001887 0.002364 0.002975 0.003751 0.004726 0.005938 0.007431 0.009254 0.011460 0.014105 0.017250 0.020960 0.025299 0.030335 0.036133 0.042757 0.050268 0.058721 0.068162 0.078629 0.090149 0.102734 0.116385 0.131084 0.146799 0.163480 0.181063 0.199468 0.218601 0.238359 0.258628 0.279289 0.300220 0.321296 0.342398 0.363409 0.384220 0.404731 0.424851 0.444501 0.463612 0.482127 0.500000 0.000972 0.001024 0.001115 0.001250 0.001438 0.001691 0.002023 0.002454 0.003004 0.003699 0.004569 0.005649 0.006977 0.008596 0.010555 0.012906 0.015703 0.019007 0.022878 0.027380 0.032577 0.038531 0.045304 0.052953 0.061528 0.071073 0.081624 0.093204 0.105824 0.119482 0.134160 0.149824 0.166428 0.183906 0.202181 0.221163 0.240751 0.260834 0.281297 0.302022 0.322889 0.343781 0.364585 0.385196 0.405514 0.425452 0.444931 0.463884 0.482256 0.500000 0.001375 0.001446 0.001561 0.001729 0.001958 0.002261 0.002654 0.003154 0.003784 0.004571 0.005543 0.006736 0.008188 0.009942 0.012044 0.014546 0.017501 0.020967 0.025003 0.029669 0.035027 0.041136 0.048053 0.055833 0.064523 0.074165 0.084789 0.096418 0.109060 0.122712 0.137355 0.152957 0.169470 0.186831 0.204966 0.223786 0.243194 0.263083 0.283341 0.303854 0.324506 0.345184 0.365777 0.386182 0.406305 0.426058 0.445365 0.464159 0.482386 0.500000 0.001888 0.001981 0.002126 0.002332 0.002607 0.002967 0.003425 0.004002 0.004720 0.005604 0.006686 0.007999 0.009582 0.011475 0.013726 0.016383 0.019498 0.023127 0.027326 0.032154 0.037668 0.043925 0.050979 0.058881 0.067675 0.077400 0.088085 0.099749 0.112400 0.126032 0.140628 0.156154 0.172565 0.189799 0.207783 0.226433 0.245654 0.265343 0.285392 0.305690 0.326124 0.346585 0.366966 0.387167 0.407094 0.426662 0.445797 0.464433 0.482516 0.500000 0.002524 0.002644 0.002824 0.003072 0.003400 0.003821 0.004352 0.005011 0.005822 0.006810 0.008007 0.009444 0.011161 0.013197 0.015597 0.018408 0.021682 0.025471 0.029829 0.034811 0.040473 0.046868 0.054047 0.062057 0.070942 0.080736 0.091466 0.103151 0.115795 0.129394 0.143929 0.159368 0.175666 0.192764 0.210591 0.229065 0.248095 0.267581 0.287419 0.307501 0.327719 0.347965 0.368136 0.388134 0.407868 0.427255 0.446221 0.464702 0.482643 0.500000 0.003293 0.003445 0.003664 0.003960 0.004346 0.004833 0.005441 0.006187 0.007095 0.008191 0.009504 0.011068 0.012919 0.015097 0.017644 0.020606 0.024033 0.027974 0.032481 0.037607 0.043403 0.049922 0.057210 0.065314 0.074273 0.084119 0.094879 0.106568 0.119191 0.132744 0.147206 0.162548 0.178725 0.195681 0.213346 0.231642 0.250479 0.269764 0.289393 0.309262 0.329267 0.349303 0.369270 0.389071 0.408617 0.427828 0.446630 0.464961 0.482766 0.500000 0.004199 0.004387 0.004650 0.004999 0.005446 0.006004 0.006692 0.007527 0.008535 0.009739 0.011169 0.012857 0.014839 0.017153 0.019841 0.022946 0.026515 0.030596 0.035238 0.040492 0.046407 0.053032 0.060413 0.068591 0.077606 0.087487 0.098260 0.109938 0.122528 0.136021 0.150402 0.165639 0.181689 0.198499 0.216001 0.234120 0.252769 0.271855 0.291281 0.310945 0.330745 0.350579 0.370349 0.389962 0.409330 0.428373 0.447020 0.465207 0.482882 0.500000 0.005236 0.005465 0.005776 0.006181 0.006692 0.007323 0.008091 0.009017 0.010122 0.011432 0.012974 0.014781 0.016887 0.019328 0.022145 0.025379 0.029076 0.033281 0.038042 0.043405 0.049420 0.056132 0.063585 0.071819 0.080872 0.090771 0.101541 0.113195 0.125738 0.139164 0.153455 0.168583 0.184505 0.201169 0.218512 0.236457 0.254924 0.273821 0.293053 0.312522 0.332128 0.351773 0.371359 0.390795 0.409995 0.428881 0.447383 0.465437 0.482991 0.500000 0.006385 0.006657 0.007019 0.007482 0.008058 0.008761 0.009609 0.010621 0.011819 0.013228 0.014875 0.016791 0.019009 0.021564 0.024495 0.027842 0.031648 0.035958 0.040816 0.046270 0.052363 0.059142 0.066647 0.074919 0.083991 0.093893 0.104647 0.116266 0.128754 0.142106 0.156305 0.171322 0.187118 0.203642 0.220831 0.238613 0.256908 0.275628 0.294680 0.313969 0.333396 0.352865 0.372281 0.391556 0.410603 0.429346 0.447714 0.465646 0.483090 0.500000 0.007606 0.007925 0.008339 0.008859 0.009498 0.010270 0.011192 0.012284 0.013567 0.015066 0.016805 0.018817 0.021131 0.023783 0.026809 0.030250 0.034145 0.038539 0.043474 0.048995 0.055147 0.061973 0.069512 0.077804 0.086882 0.096774 0.107501 0.119076 0.131505 0.144781 0.158888 0.173800 0.189476 0.205868 0.222915 0.240547 0.258685 0.277244 0.296134 0.315259 0.334526 0.353838 0.373103 0.392232 0.411143 0.429758 0.448008 0.465833 0.483178 0.500000 0.008841 0.009205 0.009669 0.010244 0.010941 0.011776 0.012765 0.013927 0.015284 0.016858 0.018675 0.020765 0.023158 0.025887 0.028990 0.032503 0.036467 0.040923 0.045914 0.051484 0.057676 0.064530 0.072089 0.080387 0.089459 0.099331 0.110026 0.121555 0.133923 0.147126 0.161147 0.175961 0.191528 0.207802 0.224722 0.242221 0.260222 0.278640 0.297388 0.316372 0.335499 0.354675 0.373810 0.392814 0.411607 0.430113 0.448261 0.465992 0.483253 0.500000 0.010008 0.010415 0.010925 0.011547 0.012296 0.013184 0.014229 0.015449 0.016864 0.018498 0.020377 0.022527 0.024980 0.027768 0.030926 0.034492 0.038504 0.043004 0.048034 0.053635 0.059850 0.066720 0.074285 0.082580 0.091639 0.101488 0.112148 0.123632 0.135945 0.149082 0.163028 0.177756 0.193230 0.209403 0.226217 0.243604 0.261490 0.279791 0.298420 0.317287 0.336299 0.355363 0.374390 0.393292 0.411988 0.430403 0.448468 0.466123 0.483315 0.500000 0.011011 0.011455 0.012002 0.012664 0.013452 0.014382 0.015470 0.016733 0.018193 0.019871 0.021793 0.023987 0.026481 0.029309 0.032505 0.036106 0.040150 0.044678 0.049730 0.055349 0.061576 0.068453 0.076017 0.084305 0.093348 0.103174 0.113804 0.125249 0.137516 0.150598 0.164483 0.179143 0.194543 0.210637 0.227367 0.244667 0.262463 0.280674 0.299212 0.317989 0.336912 0.355890 0.374834 0.393658 0.412280 0.430625 0.448627 0.466223 0.483363 0.500000 0.011751 0.012221 0.012795 0.013485 0.014301 0.015260 0.016376 0.017668 0.019157 0.020863 0.022813 0.025033 0.027554 0.030406 0.033625 0.037246 0.041309 0.045852 0.050916 0.056544 0.062777 0.069654 0.077214 0.085494 0.094525 0.104333 0.114939 0.126356 0.138589 0.151633 0.165474 0.180087 0.195436 0.211475 0.228148 0.245388 0.263123 0.281272 0.299748 0.318464 0.337327 0.356246 0.375134 0.393905 0.412477 0.430776 0.448734 0.466291 0.483395 0.500000 0.012145 0.012629 0.013217 0.013921 0.014752 0.015725 0.016856 0.018162 0.019664 0.021384 0.023348 0.025581 0.028113 0.030977 0.034206 0.037837 0.041907 0.046457 0.051527 0.057158 0.063392 0.070269 0.077827 0.086101 0.095124 0.104922 0.115516 0.126918 0.139134 0.152158 0.165977 0.180565 0.195888 0.211899 0.228542 0.245753 0.263457 0.281574 0.300019 0.318703 0.337536 0.356426 0.375286 0.394029 0.412576 0.430851 0.448788 0.466325 0.483411 0.500000 0.012145 0.012629 0.013217 0.013921 0.014752 0.015725 0.016856 0.018162 0.019664 0.021384 0.023348 0.025581 0.028113 0.030977 0.034206 0.037837 0.041907 0.046457 0.051527 0.057158 0.063392 0.070269 0.077827 0.086101 0.095124 0.104922 0.115516 0.126918 0.139134 0.152158 0.165977 0.180565 0.195888 0.211899 0.228542 0.245753 0.263457 0.281574 0.300019 0.318703 0.337536 0.356426 0.375286 0.394029 0.412576 0.430851 0.448788 0.466325 0.483411 0.500000 0.011751 0.012221 0.012795 0.013485 0.014301 0.015260 0.016376 0.017668 0.019157 0.020863 0.022813 0.025033 0.027554 0.030406 0.033625 0.037246 0.041309 0.045852 0.050916 0.056544 0.062777 0.069654 0.077214 0.085494 0.094525 0.104333 0.114939 0.126356 0.138589 0.151633 0.165474 0.180087 0.195436 0.211475 0.228148 0.245388 0.263123 0.281272 0.299748 0.318464 0.337327 0.356246 0.375134 0.393905 0.412477 0.430776 0.448734 0.466291 0.483395 0.500000 0.011011 0.011455 0.012002 0.012664 0.013452 0.014382 0.015470 0.016733 0.018193 0.019871 0.021793 0.023987 0.026481 0.029309 0.032505 0.036106 0.040150 0.044678 0.049730 0.055349 0.061576 0.068453 0.076017 0.084305 0.093348 0.103174 0.113804 0.125249 0.137516 0.150598 0.164483 0.179143 0.194543 0.210637 0.227367 0.244667 0.262463 0.280674 0.299212 0.317989 0.336912 0.355890 0.374834 0.393658 0.412280 0.430625 0.448627 0.466223 0.483363 0.500000 0.010008 0.010415 0.010925 0.011547 0.012296 0.013184 0.014229 0.015449 0.016864 0.018498 0.020377 0.022527 0.024980 0.027768 0.030926 0.034492 0.038504 0.043004 0.048034 0.053635 0.059850 0.066720 0.074285 0.082580 0.091639 0.101488 0.112148 0.123632 0.135945 0.149082 0.163028 0.177756 0.193230 0.209403 0.226217 0.243604 0.261490 0.279791 0.298420 0.317287 0.336299 0.355363 0.374390 0.393292 0.411988 0.430403 0.448468 0.466123 0.483315 0.500000 0.008841 0.009205 0.009669 0.010244 0.010941 0.011776 0.012765 0.013927 0.015284 0.016858 0.018675 0.020765 0.023158 0.025887 0.028990 0.032503 0.036467 0.040923 0.045914 0.051484 0.057676 0.064530 0.072089 0.080387 0.089459 0.099331 0.110026 0.121555 0.133923 0.147126 0.161147 0.175961 0.191528 0.207802 0.224722 0.242221 0.260222 0.278640 0.297388 0.316372 0.335499 0.354675 0.373810 0.392814 0.411607 0.430113 0.448261 0.465992 0.483253 0.500000 0.007606 0.007925 0.008339 0.008859 0.009498 0.010270 0.011192 0.012284 0.013567 0.015066 0.016805 0.018817 0.021131 0.023783 0.026809 0.030250 0.034145 0.038539 0.043474 0.048995 0.055147 0.061973 0.069512 0.077804 0.086882 0.096774 0.107501 0.119076 0.131505 0.144781 0.158888 0.173800 0.189476 0.205868 0.222915 0.240547 0.258685 0.277244 0.296134 0.315259 0.334526 0.353838 0.373103 0.392232 0.411143 0.429758 0.448008 0.465833 0.483178 0.500000 0.006385 0.006657 0.007019 0.007482 0.008058 0.008761 0.009609 0.010621 0.011819 0.013228 0.014875 0.016791 0.019009 0.021564 0.024495 0.027842 0.031648 0.035958 0.040816 0.046270 0.052363 0.059142 0.066647 0.074919 0.083991 0.093893 0.104647 0.116266 0.128754 0.142106 0.156305 0.171322 0.187118 0.203642 0.220831 0.238613 0.256908 0.275628 0.294680 0.313969 0.333396 0.352865 0.372281 0.391556 0.410603 0.429346 0.447714 0.465646 0.483090 0.500000 0.005236 0.005465 0.005776 0.006181 0.006692 0.007323 0.008091 0.009017 0.010122 0.011432 0.012974 0.014781 0.016887 0.019328 0.022145 0.025379 0.029076 0.033281 0.038042 0.043405 0.049420 0.056132 0.063585 0.071819 0.080872 0.090771 0.101541 0.113195 0.125738 0.139164 0.153455 0.168583 0.184505 0.201169 0.218512 0.236457 0.254924 0.273821 0.293053 0.312522 0.332128 0.351773 0.371359 0.390795 0.409995 0.428881 0.447383 0.465437 0.482991 0.500000 0.004199 0.004387 0.004650 0.004999 0.005446 0.006004 0.006692 0.007527 0.008535 0.009739 0.011169 0.012857 0.014839 0.017153 0.019841 0.022946 0.026515 0.030596 0.035238 0.040492 0.046407 0.053032 0.060413 0.068591 0.077606 0.087487 0.098260 0.109938 0.122528 0.136021 0.150402 0.165639 0.181689 0.198499 0.216001 0.234120 0.252769 0.271855 0.291281 0.310945 0.330745 0.350579 0.370349 0.389962 0.409330 0.428373 0.447020 0.465207 0.482882 0.500000 0.003293 0.003445 0.003664 0.003960 0.004346 0.004833 0.005441 0.006187 0.007095 0.008191 0.009504 0.011068 0.012919 0.015097 0.017644 0.020606 0.024033 0.027974 0.032481 0.037607 0.043403 0.049922 0.057210 0.065314 0.074273 0.084119 0.094879 0.106568 0.119191 0.132744 0.147206 0.162548 0.178725 0.195681 0.213346 0.231642 0.250479 0.269764 0.289393 0.309262 0.329267 0.349303 0.369270 0.389071 0.408617 0.427828 0.446630 0.464961 0.482766 0.500000 0.002524 0.002644 0.002824 0.003072 0.003400 0.003821 0.004352 0.005011 0.005822 0.006810 0.008007 0.009444 0.011161 0.013197 0.015597 0.018408 0.021682 0.025471 0.029829 0.034811 0.040473 0.046868 0.054047 0.062057 0.070942 0.080736 0.091466 0.103151 0.115795 0.129394 0.143929 0.159368 0.175666 0.192764 0.210591 0.229065 0.248095 0.267581 0.287419 0.307501 0.327719 0.347965 0.368136 0.388134 0.407868 0.427255 0.446221 0.464702 0.482643 0.500000 0.001888 0.001981 0.002126 0.002332 0.002607 0.002967 0.003425 0.004002 0.004720 0.005604 0.006686 0.007999 0.009582 0.011475 0.013726 0.016383 0.019498 0.023127 0.027326 0.032154 0.037668 0.043925 0.050979 0.058881 0.067675 0.077400 0.088085 0.099749 0.112400 0.126032 0.140628 0.156154 0.172565 0.189799 0.207783 0.226433 0.245654 0.265343 0.285392 0.305690 0.326124 0.346585 0.366966 0.387167 0.407094 0.426662 0.445797 0.464433 0.482516 0.500000 0.001375 0.001446 0.001561 0.001729 0.001958 0.002261 0.002654 0.003154 0.003784 0.004571 0.005543 0.006736 0.008188 0.009942 0.012044 0.014546 0.017501 0.020967 0.025003 0.029669 0.035027 0.041136 0.048053 0.055833 0.064523 0.074165 0.084789 0.096418 0.109060 0.122712 0.137355 0.152957 0.169470 0.186831 0.204966 0.223786 0.243194 0.263083 0.283341 0.303854 0.324506 0.345184 0.365777 0.386182 0.406305 0.426058 0.445365 0.464159 0.482386 0.500000 0.000972 0.001024 0.001115 0.001250 0.001438 0.001691 0.002023 0.002454 0.003004 0.003699 0.004569 0.005649 0.006977 0.008596 0.010555 0.012906 0.015703 0.019007 0.022878 0.027380 0.032577 0.038531 0.045304 0.052953 0.061528 0.071073 0.081624 0.093204 0.105824 0.119482 0.134160 0.149824 0.166428 0.183906 0.202181 0.221163 0.240751 0.260834 0.281297 0.302022 0.322889 0.343781 0.364585 0.385196 0.405514 0.425452 0.444931 0.463884 0.482256 0.500000 0.000663 0.000701 0.000771 0.000878 0.001030 0.001239 0.001519 0.001887 0.002364 0.002975 0.003751 0.004726 0.005938 0.007431 0.009254 0.011460 0.014105 0.017250 0.020960 0.025299 0.030335 0.036133 0.042757 0.050268 0.058721 0.068162 0.078629 0.090149 0.102734 0.116385 0.131084 0.146799 0.163480 0.181063 0.199468 0.218601 0.238359 0.258628 0.279289 0.300220 0.321296 0.342398 0.363409 0.384220 0.404731 0.424851 0.444501 0.463612 0.482127 0.500000 0.000434 0.000461 0.000514 0.000597 0.000719 0.000890 0.001123 0.001435 0.001847 0.002384 0.003074 0.003953 0.005059 0.006435 0.008131 0.010201 0.012702 0.015697 0.019251 0.023433 0.028310 0.033954 0.040429 0.047801 0.056127 0.065457 0.075833 0.087284 0.099825 0.113458 0.128166 0.143919 0.160665 0.178340 0.196862 0.216135 0.236052 0.256496 0.277344 0.298471 0.319748 0.341052 0.362263 0.383270 0.403968 0.424266 0.444081 0.463345 0.482000 0.500000 0.000270 0.000289 0.000328 0.000392 0.000488 0.000626 0.000818 0.001082 0.001437 0.001907 0.002522 0.003315 0.004324 0.005594 0.007174 0.009119 0.011486 0.014340 0.017748 0.021780 0.026506 0.032000 0.038330 0.045564 0.053763 0.062980 0.073261 0.084636 0.097125 0.110730 0.125438 0.141216 0.158016 0.175770 0.194395 0.213795 0.233857 0.254464 0.275488 0.296799 0.318266 0.339763 0.361164 0.382357 0.403235 0.423702 0.443678 0.463089 0.481879 0.500000 0.000158 0.000170 0.000198 0.000246 0.000321 0.000431 0.000589 0.000811 0.001116 0.001529 0.002077 0.002794 0.003718 0.004894 0.006370 0.008201 0.010446 0.013172 0.016444 0.020336 0.024921 0.030273 0.036464 0.043565 0.051640 0.060746 0.070929 0.082226 0.094658 0.108228 0.122926 0.138719 0.155560 0.173381 0.192097 0.211609 0.231803 0.252558 0.273744 0.295226 0.316870 0.338546 0.360126 0.381494 0.402541 0.423169 0.443295 0.462847 0.481764 0.500000 0.000085 0.000093 0.000112 0.000148 0.000204 0.000291 0.000421 0.000608 0.000871 0.001234 0.001725 0.002376 0.003226 0.004319 0.005703 0.007433 0.009571 0.012180 0.015331 0.019096 0.023551 0.028772 0.034834 0.041809 0.049766 0.058763 0.068852 0.080070 0.092441 0.105972 0.120652 0.136452 0.153324 0.171199 0.189992 0.209602 0.229913 0.250802 0.272133 0.293770 0.315577 0.337417 0.359163 0.380692 0.401896 0.422673 0.442939 0.462621 0.481657 0.500000 0.000041 0.000046 0.000059 0.000084 0.000126 0.000195 0.000300 0.000458 0.000686 0.001008 0.001451 0.002047 0.002834 0.003855 0.005160 0.006804 0.008847 0.011355 0.014398 0.018051 0.022389 0.027492 0.033436 0.040296 0.048143 0.057039 0.067037 0.078178 0.090488 0.103977 0.118635 0.134434 0.151327 0.169245 0.188102 0.207795 0.228209 0.249214 0.270674 0.292451 0.314402 0.336391 0.358286 0.379962 0.401307 0.422221 0.442615 0.462414 0.481559 0.500000 0.000017 0.000019 0.000028 0.000045 0.000076 0.000130 0.000217 0.000351 0.000552 0.000840 0.001243 0.001793 0.002528 0.003491 0.004730 0.006301 0.008264 0.010685 0.013636 0.017191 0.021428 0.026427 0.032267 0.039025 0.046773 0.055576 0.065490 0.076559 0.088810 0.102255 0.116888 0.132681 0.149586 0.167536 0.186445 0.206208 0.226707 0.247812 0.269384 0.291282 0.313360 0.335480 0.357506 0.379312 0.400784 0.421818 0.442325 0.462231 0.481472 0.500000 0.000005 0.000007 0.000012 0.000023 0.000046 0.000089 0.000162 0.000278 0.000456 0.000718 0.001091 0.001605 0.002299 0.003215 0.004401 0.005913 0.007811 0.010161 0.013035 0.016509 0.020661 0.025572 0.031323 0.037992 0.045653 0.054375 0.064214 0.075217 0.087413 0.100817 0.115422 0.131204 0.148115 0.166088 0.185036 0.204855 0.225424 0.246612 0.268278 0.290277 0.312464 0.334695 0.356834 0.378751 0.400332 0.421470 0.442075 0.462072 0.481396 0.500000 0.000001 0.000002 0.000004 0.000012 0.000029 0.000064 0.000127 0.000231 0.000393 0.000637 0.000986 0.001475 0.002138 0.003018 0.004164 0.005631 0.007479 0.009774 0.012588 0.015997 0.020081 0.024921 0.030598 0.037194 0.044783 0.053436 0.063210 0.074155 0.086302 0.099667 0.114246 0.130013 0.146924 0.164912 0.183888 0.203749 0.224372 0.245625 0.267366 0.289448 0.311723 0.334045 0.356276 0.378286 0.399957 0.421181 0.441868 0.461940 0.481334 0.500000 0.000000 0.000000 0.000002 0.000007 0.000021 0.000051 0.000108 0.000204 0.000357 0.000588 0.000924 0.001394 0.002037 0.002894 0.004013 0.005448 0.007260 0.009516 0.012286 0.015648 0.019681 0.024467 0.030089 0.036627 0.044160 0.052756 0.062479 0.073375 0.085480 0.098811 0.113364 0.129116 0.146022 0.164016 0.183010 0.202899 0.223561 0.244863 0.266660 0.288804 0.311146 0.333539 0.355842 0.377923 0.399664 0.420955 0.441706 0.461837 0.481285 0.500000 0.000000 0.000000 0.000001 0.000006 0.000019 0.000047 0.000101 0.000194 0.000343 0.000569 0.000898 0.001361 0.001993 0.002837 0.003941 0.005359 0.007151 0.009382 0.012126 0.015457 0.019457 0.024206 0.029790 0.036288 0.043780 0.052336 0.062018 0.072877 0.084949 0.098250 0.112780 0.128516 0.145413 0.163406 0.182408 0.202313 0.222999 0.244332 0.266166 0.288352 0.310740 0.333182 0.355535 0.377667 0.399456 0.420796 0.441592 0.461765 0.481251 0.500000 0.000000 0.000000 0.000002 0.000007 0.000022 0.000053 0.000111 0.000211 0.000369 0.000609 0.000958 0.001448 0.002117 0.003010 0.004178 0.005679 0.007575 0.009939 0.012846 0.016378 0.020620 0.025659 0.031585 0.038484 0.046437 0.055519 0.065796 0.077316 0.090114 0.104205 0.119580 0.136209 0.154038 0.172988 0.192959 0.213831 0.235467 0.257718 0.280425 0.303426 0.326559 0.349669 0.372607 0.395236 0.417433 0.439092 0.460120 0.480442 0.500000 0.518749 0.000000 0.000001 0.000003 0.000009 0.000025 0.000058 0.000118 0.000221 0.000384 0.000629 0.000985 0.001483 0.002163 0.003070 0.004253 0.005772 0.007691 0.010080 0.013016 0.016579 0.020856 0.025934 0.031900 0.038840 0.046836 0.055961 0.066278 0.077836 0.090669 0.104787 0.120185 0.136828 0.154663 0.173611 0.193571 0.214423 0.236031 0.258246 0.280911 0.303865 0.326949 0.350006 0.372890 0.395465 0.417611 0.439220 0.460201 0.480481 0.500000 0.518715 0.000002 0.000002 0.000006 0.000014 0.000034 0.000072 0.000139 0.000250 0.000423 0.000681 0.001052 0.001568 0.002269 0.003201 0.004413 0.005965 0.007921 0.010352 0.013333 0.016947 0.021277 0.026411 0.032436 0.039436 0.047491 0.056673 0.067044 0.078651 0.091525 0.105677 0.121098 0.137754 0.155590 0.174527 0.194464 0.215281 0.236844 0.259004 0.281606 0.304491 0.327501 0.350482 0.373290 0.395790 0.417862 0.439400 0.460316 0.480535 0.500000 0.518666 0.000007 0.000008 0.000014 0.000027 0.000052 0.000098 0.000176 0.000300 0.000490 0.000767 0.001162 0.001706 0.002440 0.003408 0.004663 0.006262 0.008271 0.010760 0.013805 0.017486 0.021888 0.027097 0.033198 0.040274 0.048404 0.057657 0.068094 0.079759 0.092682 0.106872 0.122317 0.138983 0.156813 0.175729 0.195631 0.216398 0.237898 0.259984 0.282502 0.305297 0.328211 0.351094 0.373802 0.396205 0.418182 0.439631 0.460463 0.480605 0.500000 0.518604 0.000019 0.000023 0.000032 0.000051 0.000085 0.000142 0.000235 0.000378 0.000590 0.000895 0.001322 0.001904 0.002681 0.003699 0.005009 0.006671 0.008749 0.011312 0.014437 0.018204 0.022695 0.027996 0.034190 0.041359 0.049578 0.058916 0.069429 0.081160 0.094137 0.108366 0.123834 0.140506 0.158324 0.177209 0.197062 0.217764 0.239183 0.261176 0.283590 0.306273 0.329069 0.351832 0.374421 0.396705 0.418569 0.439910 0.460641 0.480690 0.500000 0.518528 0.000046 0.000051 0.000065 0.000092 0.000138 0.000211 0.000323 0.000491 0.000733 0.001073 0.001541 0.002171 0.003003 0.004083 0.005463 0.007201 0.009363 0.012017 0.015239 0.019108 0.023706 0.029116 0.035418 0.042694 0.051015 0.060448 0.071047 0.082851 0.095885 0.110153 0.125642 0.142314 0.160112 0.178955 0.198745 0.219366 0.240688 0.262568 0.284858 0.307408 0.330067 0.352689 0.375137 0.397284 0.419016 0.440232 0.460846 0.480787 0.500000 0.518441 0.000093 0.000102 0.000123 0.000160 0.000221 0.000313 0.000451 0.000649 0.000927 0.001311 0.001830 0.002518 0.003416 0.004570 0.006033 0.007863 0.010124 0.012885 0.016221 0.020208 0.024928 0.030461 0.036887 0.044282 0.052717 0.062254 0.072944 0.084825 0.097917 0.112224 0.127729 0.144395 0.162161 0.180951 0.200665 0.221189 0.242395 0.264144 0.286292 0.308690 0.331191 0.353654 0.375944 0.397936 0.419518 0.440593 0.461076 0.480897 0.500000 0.518343 0.000170 0.000184 0.000214 0.000265 0.000344 0.000461 0.000628 0.000863 0.001186 0.001622 0.002200 0.002957 0.003934 0.005175 0.006735 0.008670 0.011045 0.013928 0.017392 0.021513 0.026369 0.032039 0.038599 0.046124 0.054681 0.064329 0.075115 0.087074 0.100224 0.114566 0.130081 0.146731 0.164456 0.183179 0.202802 0.223213 0.244287 0.265889 0.287875 0.310103 0.332429 0.354715 0.376829 0.398651 0.420070 0.440990 0.461328 0.481017 0.500000 0.518236 0.000289 0.000309 0.000351 0.000418 0.000520 0.000666 0.000870 0.001148 0.001523 0.002019 0.002668 0.003505 0.004571 0.005912 0.007581 0.009635 0.012138 0.015157 0.018762 0.023029 0.028034 0.033852 0.040557 0.048220 0.056905 0.066667 0.077550 0.089586 0.102790 0.117161 0.132678 0.149303 0.166975 0.185617 0.205135 0.225418 0.246343 0.267780 0.289589 0.311631 0.333766 0.355859 0.377784 0.399420 0.420663 0.441416 0.461600 0.481146 0.500000 0.518121 0.000461 0.000491 0.000546 0.000635 0.000764 0.000944 0.001190 0.001519 0.001954 0.002520 0.003249 0.004176 0.005343 0.006795 0.008586 0.010773 0.013416 0.016582 0.020342 0.024766 0.029929 0.035903 0.042760 0.050565 0.059380 0.069257 0.080235 0.092344 0.105597 0.119988 0.135498 0.152085 0.169691 0.188240 0.207637 0.227777 0.248539 0.269796 0.291412 0.313253 0.335184 0.357072 0.378794 0.400234 0.421289 0.441866 0.461886 0.481282 0.500000 0.518000 0.000701 0.000742 0.000816 0.000929 0.001090 0.001311 0.001606 0.001993 0.002496 0.003141 0.003959 0.004987 0.006266 0.007841 0.009766 0.012095 0.014889 0.018214 0.022136 0.026726 0.032054 0.038190 0.045201 0.053150 0.062095 0.072083 0.083153 0.095328 0.108619 0.123022 0.138512 0.155049 0.172576 0.191017 0.210280 0.230263 0.250848 0.271911 0.293323 0.314951 0.336665 0.358337 0.379847 0.401082 0.421941 0.442335 0.462184 0.481423 0.500000 0.517873 0.001024 0.001081 0.001176 0.001319 0.001517 0.001784 0.002135 0.002588 0.003167 0.003900 0.004817 0.005955 0.007356 0.009064 0.011131 0.013613 0.016567 0.020058 0.024150 0.028910 0.034406 0.040705 0.047870 0.055961 0.065031 0.075125 0.086276 0.098508 0.111828 0.126229 0.141687 0.158161 0.175595 0.193914 0.213031 0.232843 0.253239 0.274098 0.295294 0.316700 0.338189 0.359637 0.380928 0.401952 0.422610 0.442814 0.462488 0.481568 0.500000 0.517744 0.001446 0.001521 0.001643 0.001820 0.002062 0.002381 0.002794 0.003321 0.003985 0.004813 0.005838 0.007095 0.008626 0.010475 0.012693 0.015334 0.018454 0.022115 0.026379 0.031311 0.036975 0.043434 0.050749 0.058975 0.068162 0.078352 0.089575 0.101851 0.115186 0.129571 0.144984 0.161382 0.178709 0.196895 0.215853 0.235484 0.255681 0.276327 0.297300 0.318477 0.339736 0.360955 0.382023 0.402832 0.423286 0.443299 0.462796 0.481714 0.500000 0.517614 0.001981 0.002080 0.002233 0.002450 0.002741 0.003119 0.003602 0.004209 0.004964 0.005896 0.007035 0.008419 0.010086 0.012082 0.014456 0.017259 0.020547 0.024379 0.028815 0.033916 0.039743 0.046356 0.053811 0.062162 0.071455 0.081727 0.093008 0.105314 0.118650 0.133006 0.148358 0.164666 0.181876 0.199917 0.218706 0.238149 0.258140 0.278567 0.299313 0.320258 0.341283 0.362272 0.383116 0.403710 0.423960 0.443782 0.463103 0.481859 0.500000 0.517484 0.002644 0.002771 0.002961 0.003223 0.003568 0.004012 0.004570 0.005264 0.006117 0.007158 0.008417 0.009931 0.011740 0.013885 0.016416 0.019382 0.022837 0.026836 0.031437 0.036699 0.042680 0.049436 0.057020 0.065482 0.074865 0.085205 0.096527 0.108847 0.122169 0.136481 0.151760 0.167967 0.185048 0.202935 0.221549 0.240797 0.260579 0.280785 0.301302 0.322015 0.342808 0.363569 0.384191 0.404573 0.424622 0.444257 0.463404 0.482002 0.500000 0.517357 0.003445 0.003605 0.003837 0.004149 0.004555 0.005068 0.005707 0.006492 0.007448 0.008601 0.009984 0.011631 0.013580 0.015875 0.018560 0.021684 0.025298 0.029457 0.034214 0.039626 0.045747 0.052631 0.060328 0.068884 0.078340 0.088730 0.100077 0.112395 0.125687 0.139942 0.155136 0.171231 0.188175 0.205902 0.224337 0.243388 0.262960 0.282946 0.303237 0.323722 0.344288 0.364827 0.385233 0.405408 0.425263 0.444715 0.463695 0.482140 0.500000 0.517234 0.004387 0.004586 0.004864 0.005232 0.005702 0.006290 0.007013 0.007892 0.008951 