# vtk DataFile Version 3.0
vtk output
ASCII
DATASET STRUCTURED_POINTS
DIMENSIONS 50 50 50
SPACING 0.020408 0.020408 0.020408
ORIGIN 0.000000 0.000000 0.000000
POINT_DATA 125000
SCALARS RTData float
LOOKUP_TABLE default
0.000000 0.000000 0.000001 0.000005 0.000017 0.000041 0.000085 0.000158 0.000270 0.000434 0.000663 0.000972 0.001375 0.001888 0.002524 0.003293 0.004199 0.005236 0.006385 0.007606 0.008841 0.010008 0.011011 0.011751 0.012145 0.012145 0.011751 0.011011 0.010008 0.008841 0.007606 0.006385 0.005236 0.004199 0.003293 0.002524 0.001888 0.001375 0.000972 0.000663 0.000434 0.000270 0.000158 0.000085 0.000041 0.000017 0.000005 0.000001 0.000000 0.000000 0.000000 0.000000 0.000002 0.000007 0.000019 0.000046 0.000093 0.000170 0.000289 0.000461 0.000701 0.001024 0.001446 0.001981 0.002644 0.003445 0.004387 0.005465 0.006657 0.007925 0.009205 0.010415 0.011455 0.012221 0.012629 0.012629 0.012221 0.011455 0.010415 0.009205 0.007925 0.006657 0.005465 0.004387 0.003445 0.002644 0.001981 0.001446 0.001024 0.000701 0.000461 0.000289 0.000170 0.000093 0.000046 0.000019 0.000007 0.000002 0.000000 0.000000 0.000001 0.000002 0.000004 0.000012 0.000028 0.000059 0.000112 0.000198 0.000328 0.000514 0.000771 0.001115 0.001561 0.002126 0.002824 0.003664 0.004650 0.005776 0.007019 0.008339 0.009669 0.010925 0.012002 0.012795 0.013217 0.013217 0.012795 0.012002 0.010925 0.009669 0.008339 0.007019 0.005776 0.004650 0.003664 0.002824 0.002126 0.001561 0.001115 0.000771 0.000514 0.000328 0.000198 0.000112 0.000059 0.000028 0.000012 0.000004 0.000002 0.000001 0.000006 0.000007 0.000012 0.000023 0.000045 0.000084 0.000148 0.000246 0.000392 0.000597 0.000878 0.001250 0.001729 0.002332 0.003072 0.003960 0.004999 0.006181 0.007482 0.008859 0.010244 0.011547 0.012664 0.013485 0.013921 0.013921 0.013485 0.012664 0.011547 0.010244 0.008859 0.007482 0.006181 0.004999 0.003960 0.003072 0.002332 0.001729 0.001250 0.000878 0.000597 0.000392 0.000246 0.000148 0.000084 0.000045 0.000023 0.000012 0.000007 0.000006 0.000019 0.000021 0.000029 0.000046 0.000076 0.000126 0.000204 0.000321 0.000488 0.000719 0.001030 0.001438 0.001958 0.002607 0.003400 0.004346 0.005446 0.006692 0.008058 0.009498 0.010941 0.012296 0.013452 0.014301 0.014752 0.014752 0.014301 0.013452 0.012296 0.010941 0.009498 0.008058 0.006692 0.005446 0.004346 0.003400 0.002607 0.001958 0.001438 0.001030 0.000719 0.000488 0.000321 0.000204 0.000126 0.000076 0.000046 0.000029 0.000021 0.000019 0.000047 0.000051 0.000064 0.000089 0.000130 0.000195 0.000291 0.000431 0.000626 0.000890 0.001239 0.001691 0.002261 0.002967 0.003821 0.004833 0.006004 0.007323 0.008761 0.010270 0.011776 0.013184 0.014382 0.015260 0.015725 0.015725 0.015260 0.014382 0.013184 0.011776 0.010270 0.008761 0.007323 0.006004 0.004833 0.003821 0.002967 0.002261 0.001691 0.001239 0.000890 0.000626 0.000431 0.000291 0.000195 0.000130 0.000089 0.000064 0.000051 0.000047 0.000101 0.000108 0.000127 0.000162 0.000217 0.000300 0.000421 0.000589 0.000818 0.001123 0.001519 0.002023 0.002654 0.003425 0.004352 0.005441 0.006692 0.008091 0.009609 0.011192 0.012765 0.014229 0.015470 0.016376 0.016856 0.016856 0.016376 0.015470 0.014229 0.012765 0.011192 0.009609 0.008091 0.006692 0.005441 0.004352 0.003425 0.002654 0.002023 0.001519 0.001123 0.000818 0.000589 0.000421 0.000300 0.000217 0.000162 0.000127 0.000108 0.000101 0.000194 0.000204 0.000231 0.000278 0.000351 0.000458 0.000608 0.000811 0.001082 0.001435 0.001887 0.002454 0.003154 0.004002 0.005011 0.006187 0.007527 0.009017 0.010621 0.012284 0.013927 0.015449 0.016733 0.017668 0.018162 0.018162 0.017668 0.016733 0.015449 0.013927 0.012284 0.010621 0.009017 0.007527 0.006187 0.005011 0.004002 0.003154 0.002454 0.001887 0.001435 0.001082 0.000811 0.000608 0.000458 0.000351 0.000278 0.000231 0.000204 0.000194 0.000343 0.000357 0.000393 0.000456 0.000552 0.000686 0.000871 0.001116 0.001437 0.001847 0.002364 0.003004 0.003784 0.004720 0.005822 0.007095 0.008535 0.010122 0.011819 0.013567 0.015284 0.016864 0.018193 0.019157 0.019664 0.019664 0.019157 0.018193 0.016864 0.015284 0.013567 0.011819 0.010122 0.008535 0.007095 0.005822 0.004720 0.003784 0.003004 0.002364 0.001847 0.001437 0.001116 0.000871 0.000686 0.000552 0.000456 0.000393 0.000357 0.000343 0.000569 0.000588 0.000637 0.000718 0.000840 0.001008 0.001234 0.001529 0.001907 0.002384 0.002975 0.003699 0.004571 0.005604 0.006810 0.008191 0.009739 0.011432 0.013228 0.015066 0.016858 0.018498 0.019871 0.020863 0.021384 0.021384 0.020863 0.019871 0.018498 0.016858 0.015066 0.013228 0.011432 0.009739 0.008191 0.006810 0.005604 0.004571 0.003699 0.002975 0.002384 0.001907 0.001529 0.001234 0.001008 0.000840 0.000718 0.000637 0.000588 0.000569 0.000898 0.000924 0.000986 0.001091 0.001243 0.001451 0.001725 0.002077 0.002522 0.003074 0.003751 0.004569 0.005543 0.006686 0.008007 0.009504 0.011169 0.012974 0.014875 0.016805 0.018675 0.020377 0.021793 0.022813 0.023348 0.023348 0.022813 0.021793 0.020377 0.018675 0.016805 0.014875 0.012974 0.011169 0.009504 0.008007 0.006686 0.005543 0.004569 0.003751 0.003074 0.002522 0.002077 0.001725 0.001451 0.001243 0.001091 0.000986 0.000924 0.000898 0.001361 0.001394 0.001475 0.001605 0.001793 0.002047 0.002376 0.002794 0.003315 0.003953 0.004726 0.005649 0.006736 0.007999 0.009444 0.011068 0.012857 0.014781 0.016791 0.018817 0.020765 0.022527 0.023987 0.025033 0.025581 0.025581 0.025033 0.023987 0.022527 0.020765 0.018817 0.016791 0.014781 0.012857 0.011068 0.009444 0.007999 0.006736 0.005649 0.004726 0.003953 0.003315 0.002794 0.002376 0.002047 0.001793 0.001605 0.001475 0.001394 0.001361 0.001993 0.002037 0.002138 0.002299 0.002528 0.002834 0.003226 0.003718 0.004324 0.005059 0.005938 0.006977 0.008188 0.009582 0.011161 0.012919 0.014839 0.016887 0.019009 0.021131 0.023158 0.024980 0.026481 0.027554 0.028113 0.028113 0.027554 0.026481 0.024980 0.023158 0.021131 0.019009 0.016887 0.014839 0.012919 0.011161 0.009582 0.008188 0.006977 0.005938 0.005059 0.004324 0.003718 0.003226 0.002834 0.002528 0.002299 0.002138 0.002037 0.001993 0.002837 0.002894 0.003018 0.003215 0.003491 0.003855 0.004319 0.004894 0.005594 0.006435 0.007431 0.008596 0.009942 0.011475 0.013197 0.015097 0.017153 0.019328 0.021564 0.023783 0.025887 0.027768 0.029309 0.030406 0.030977 0.030977 0.030406 0.029309 0.027768 0.025887 0.023783 0.021564 0.019328 0.017153 0.015097 0.013197 0.011475 0.009942 0.008596 0.007431 0.006435 0.005594 0.004894 0.004319 0.003855 0.003491 0.003215 0.003018 0.002894 0.002837 0.003941 0.004013 0.004164 0.004401 0.004730 0.005160 0.005703 0.006370 0.007174 0.008131 0.009254 0.010555 0.012044 0.013726 0.015597 0.017644 0.019841 0.022145 0.024495 0.026809 0.028990 0.030926 0.032505 0.033625 0.034206 0.034206 0.033625 0.032505 0.030926 0.028990 0.026809 0.024495 0.022145 0.019841 0.017644 0.015597 0.013726 0.012044 0.010555 0.009254 0.008131 0.007174 0.006370 0.005703 0.005160 0.004730 0.004401 0.004164 0.004013 0.003941 0.005359 0.005448 0.005631 0.005913 0.006301 0.006804 0.007433 0.008201 0.009119 0.010201 0.011460 0.012906 0.014546 0.016383 0.018408 0.020606 0.022946 0.025379 0.027842 0.030250 0.032503 0.034492 0.036106 0.037246 0.037837 0.037837 0.037246 0.036106 0.034492 0.032503 0.030250 0.027842 0.025379 0.022946 0.020606 0.018408 0.016383 0.014546 0.012906 0.011460 0.010201 0.009119 0.008201 0.007433 0.006804 0.006301 0.005913 0.005631 0.005448 0.005359 0.007151 0.007260 0.007479 0.007811 0.008264 0.008847 0.009571 0.010446 0.011486 0.012702 0.014105 0.015703 0.017501 0.019498 0.021682 0.024033 0.026515 0.029076 0.031648 0.034145 0.036467 0.038504 0.040150 0.041309 0.041907 0.041907 0.041309 0.040150 0.038504 0.036467 0.034145 0.031648 0.029076 0.026515 0.024033 0.021682 0.019498 0.017501 0.015703 0.014105 0.012702 0.011486 0.010446 0.009571 0.008847 0.008264 0.007811 0.007479 0.007260 0.007151 0.009382 0.009516 0.009774 0.010161 0.010685 0.011355 0.012180 0.013172 0.014340 0.015697 0.017250 0.019007 0.020967 0.023127 0.025471 0.027974 0.030596 0.033281 0.035958 0.038539 0.040923 0.043004 0.044678 0.045852 0.046457 0.046457 0.045852 0.044678 0.043004 0.040923 0.038539 0.035958 0.033281 0.030596 0.027974 0.025471 0.023127 0.020967 0.019007 0.017250 0.015697 0.014340 0.013172 0.012180 0.011355 0.010685 0.010161 0.009774 0.009516 0.009382 0.012126 0.012286 0.012588 0.013035 0.013636 0.014398 0.015331 0.016444 0.017748 0.019251 0.020960 0.022878 0.025003 0.027326 0.029829 0.032481 0.035238 0.038042 0.040816 0.043474 0.045914 0.048034 0.049730 0.050916 0.051527 0.051527 0.050916 0.049730 0.048034 0.045914 0.043474 0.040816 0.038042 0.035238 0.032481 0.029829 0.027326 0.025003 0.022878 0.020960 0.019251 0.017748 0.016444 0.015331 0.014398 0.013636 0.013035 0.012588 0.012286 0.012126 0.015457 0.015648 0.015997 0.016509 0.017191 0.018051 0.019096 0.020336 0.021780 0.023433 0.025299 0.027380 0.029669 0.032154 0.034811 0.037607 0.040492 0.043405 0.046270 0.048995 0.051484 0.053635 0.055349 0.056544 0.057158 0.057158 0.056544 0.055349 0.053635 0.051484 0.048995 0.046270 0.043405 0.040492 0.037607 0.034811 0.032154 0.029669 0.027380 0.025299 0.023433 0.021780 0.020336 0.019096 0.018051 0.017191 0.016509 0.015997 0.015648 0.015457 0.019457 0.019681 0.020081 0.020661 0.021428 0.022389 0.023551 0.024921 0.026506 0.028310 0.030335 0.032577 0.035027 0.037668 0.040473 0.043403 0.046407 0.049420 0.052363 0.055147 0.057676 0.059850 0.061576 0.062777 0.063392 0.063392 0.062777 0.061576 0.059850 0.057676 0.055147 0.052363 0.049420 0.046407 0.043403 0.040473 0.037668 0.035027 0.032577 0.030335 0.028310 0.026506 0.024921 0.023551 0.022389 0.021428 0.020661 0.020081 0.019681 0.019457 0.024206 0.024467 0.024921 0.025572 0.026427 0.027492 0.028772 0.030273 0.032000 0.033954 0.036133 0.038531 0.041136 0.043925 0.046868 0.049922 0.053032 0.056132 0.059142 0.061973 0.064530 0.066720 0.068453 0.069654 0.070269 0.070269 0.069654 0.068453 0.066720 0.064530 0.061973 0.059142 0.056132 0.053032 0.049922 0.046868 0.043925 0.041136 0.038531 0.036133 0.033954 0.032000 0.030273 0.028772 0.027492 0.026427 0.025572 0.024921 0.024467 0.024206 0.029790 0.030089 0.030598 0.031323 0.032267 0.033436 0.034834 0.036464 0.038330 0.040429 0.042757 0.045304 0.048053 0.050979 0.054047 0.057210 0.060413 0.063585 0.066647 0.069512 0.072089 0.074285 0.076017 0.077214 0.077827 0.077827 0.077214 0.076017 0.074285 0.072089 0.069512 0.066647 0.063585 0.060413 0.057210 0.054047 0.050979 0.048053 0.045304 0.042757 0.040429 0.038330 0.036464 0.034834 0.033436 0.032267 0.031323 0.030598 0.030089 0.029790 0.036288 0.036627 0.037194 0.037992 0.039025 0.040296 0.041809 0.043565 0.045564 0.047801 0.050268 0.052953 0.055833 0.058881 0.062057 0.065314 0.068591 0.071819 0.074919 0.077804 0.080387 0.082580 0.084305 0.085494 0.086101 0.086101 0.085494 0.084305 0.082580 0.080387 0.077804 0.074919 0.071819 0.068591 0.065314 0.062057 0.058881 0.055833 0.052953 0.050268 0.047801 0.045564 0.043565 0.041809 0.040296 0.039025 0.037992 0.037194 0.036627 0.036288 0.043780 0.044160 0.044783 0.045653 0.046773 0.048143 0.049766 0.051640 0.053763 0.056127 0.058721 0.061528 0.064523 0.067675 0.070942 0.074273 0.077606 0.080872 0.083991 0.086882 0.089459 0.091639 0.093348 0.094525 0.095124 0.095124 0.094525 0.093348 0.091639 0.089459 0.086882 0.083991 0.080872 0.077606 0.074273 0.070942 0.067675 0.064523 0.061528 0.058721 0.056127 0.053763 0.051640 0.049766 0.048143 0.046773 0.045653 0.044783 0.044160 0.043780 0.052336 0.052756 0.053436 0.054375 0.055576 0.057039 0.058763 0.060746 0.062980 0.065457 0.068162 0.071073 0.074165 0.077400 0.080736 0.084119 0.087487 0.090771 0.093893 0.096774 0.099331 0.101488 0.103174 0.104333 0.104922 0.104922 0.104333 0.103174 0.101488 0.099331 0.096774 0.093893 0.090771 0.087487 0.084119 0.080736 0.077400 0.074165 0.071073 0.068162 0.065457 0.062980 0.060746 0.058763 0.057039 0.055576 0.054375 0.053436 0.052756 0.052336 0.062018 0.062479 0.063210 0.064214 0.065490 0.067037 0.068852 0.070929 0.073261 0.075833 0.078629 0.081624 0.084789 0.088085 0.091466 0.094879 0.098260 0.101541 0.104647 0.107501 0.110026 0.112148 0.113804 0.114939 0.115516 0.115516 0.114939 0.113804 0.112148 0.110026 0.107501 0.104647 0.101541 0.098260 0.094879 0.091466 0.088085 0.084789 0.081624 0.078629 0.075833 0.073261 0.070929 0.068852 0.067037 0.065490 0.064214 0.063210 0.062479 0.062018 0.072877 0.073375 0.074155 0.075217 0.076559 0.078178 0.080070 0.082226 0.084636 0.087284 0.090149 0.093204 0.096418 0.099749 0.103151 0.106568 0.109938 0.113195 0.116266 0.119076 0.121555 0.123632 0.125249 0.126356 0.126918 0.126918 0.126356 0.125249 0.123632 0.121555 0.119076 0.116266 0.113195 0.109938 0.106568 0.103151 0.099749 0.096418 0.093204 0.090149 0.087284 0.084636 0.082226 0.080070 0.078178 0.076559 0.075217 0.074155 0.073375 0.072877 0.084949 0.085480 0.086302 0.087413 0.088810 0.090488 0.092441 0.094658 0.097125 0.099825 0.102734 0.105824 0.109060 0.112400 0.115795 0.119191 0.122528 0.125738 0.128754 0.131505 0.133923 0.135945 0.137516 0.138589 0.139134 0.139134 0.138589 0.137516 0.135945 0.133923 0.131505 0.128754 0.125738 0.122528 0.119191 0.115795 0.112400 0.109060 0.105824 0.102734 0.099825 0.097125 0.094658 0.092441 0.090488 0.088810 0.087413 0.086302 0.085480 0.084949 0.098250 0.098811 0.099667 0.100817 0.102255 0.103977 0.105972 0.108228 0.110730 0.113458 0.116385 0.119482 0.122712 0.126032 0.129394 0.132744 0.136021 0.139164 0.142106 0.144781 0.147126 0.149082 0.150598 0.151633 0.152158 0.152158 0.151633 0.150598 0.149082 0.147126 0.144781 0.142106 0.139164 0.136021 0.132744 0.129394 0.126032 0.122712 0.119482 0.116385 0.113458 0.110730 0.108228 0.105972 0.103977 0.102255 0.100817 0.099667 0.098811 0.098250 0.112780 0.113364 0.114246 0.115422 0.116888 0.118635 0.120652 0.122926 0.125438 0.128166 0.131084 0.134160 0.137355 0.140628 0.143929 0.147206 0.150402 0.153455 0.156305 0.158888 0.161147 0.163028 0.164483 0.165474 0.165977 0.165977 0.165474 0.164483 0.163028 0.161147 0.158888 0.156305 0.153455 0.150402 0.147206 0.143929 0.140628 0.137355 0.134160 0.131084 0.128166 0.125438 0.122926 0.120652 0.118635 0.116888 0.115422 0.114246 0.113364 0.112780 0.128516 0.129116 0.130013 0.131204 0.132681 0.134434 0.136452 0.138719 0.141216 0.143919 0.146799 0.149824 0.152957 0.156154 0.159368 0.162548 0.165639 0.168583 0.171322 0.173800 0.175961 0.177756 0.179143 0.180087 0.180565 0.180565 0.180087 0.179143 0.177756 0.175961 0.173800 0.171322 0.168583 0.165639 0.162548 0.159368 0.156154 0.152957 0.149824 0.146799 0.143919 0.141216 0.138719 0.136452 0.134434 0.132681 0.131204 0.130013 0.129116 0.128516 0.145413 0.146022 0.146924 0.148115 0.149586 0.151327 0.153324 0.155560 0.158016 0.160665 0.163480 0.166428 0.169470 0.172565 0.175666 0.178725 0.181689 0.184505 0.187118 0.189476 0.191528 0.193230 0.194543 0.195436 0.195888 0.195888 0.195436 0.194543 0.193230 0.191528 0.189476 0.187118 0.184505 0.181689 0.178725 0.175666 0.172565 0.169470 0.166428 0.163480 0.160665 0.158016 0.155560 0.153324 0.151327 0.149586 0.148115 0.146924 0.146022 0.145413 0.163406 0.164016 0.164912 0.166088 0.167536 0.169245 0.171199 0.173381 0.175770 0.178340 0.181063 0.183906 0.186831 0.189799 0.192764 0.195681 0.198499 0.201169 0.203642 0.205868 0.207802 0.209403 0.210637 0.211475 0.211899 0.211899 0.211475 0.210637 0.209403 0.207802 0.205868 0.203642 0.201169 0.198499 0.195681 0.192764 0.189799 0.186831 0.183906 0.181063 0.178340 0.175770 0.173381 0.171199 0.169245 0.167536 0.166088 0.164912 0.164016 0.163406 0.182408 0.183010 0.183888 0.185036 0.186445 0.188102 0.189992 0.192097 0.194395 0.196862 0.199468 0.202181 0.204966 0.207783 0.210591 0.213346 0.216001 0.218512 0.220831 0.222915 0.224722 0.226217 0.227367 0.228148 0.228542 0.228542 0.228148 0.227367 0.226217 0.224722 0.222915 0.220831 0.218512 0.216001 0.213346 0.210591 0.207783 0.204966 0.202181 0.199468 0.196862 0.194395 0.192097 0.189992 0.188102 0.186445 0.185036 0.183888 0.183010 0.182408 0.202313 0.202899 0.203749 0.204855 0.206208 0.207795 0.209602 0.211609 0.213795 0.216135 0.218601 0.221163 0.223786 0.226433 0.229065 0.231642 0.234120 0.236457 0.238613 0.240547 0.242221 0.243604 0.244667 0.245388 0.245753 0.245753 0.245388 0.244667 0.243604 0.242221 0.240547 0.238613 0.236457 0.234120 0.231642 0.229065 0.226433 0.223786 0.221163 0.218601 0.216135 0.213795 0.211609 0.209602 0.207795 0.206208 0.204855 0.203749 0.202899 0.202313 0.222999 0.223561 0.224372 0.225424 0.226707 0.228209 0.229913 0.231803 0.233857 0.236052 0.238359 0.240751 0.243194 0.245654 0.248095 0.250479 0.252769 0.254924 0.256908 0.258685 0.260222 0.261490 0.262463 0.263123 0.263457 0.263457 0.263123 0.262463 0.261490 0.260222 0.258685 0.256908 0.254924 0.252769 0.250479 0.248095 0.245654 0.243194 0.240751 0.238359 0.236052 0.233857 0.231803 0.229913 0.228209 0.226707 0.225424 0.224372 0.223561 0.222999 0.244332 0.244863 0.245625 0.246612 0.247812 0.249214 0.250802 0.252558 0.254464 0.256496 0.258628 0.260834 0.263083 0.265343 0.267581 0.269764 0.271855 0.273821 0.275628 0.277244 0.278640 0.279791 0.280674 0.281272 0.281574 0.281574 0.281272 0.280674 0.279791 0.278640 0.277244 0.275628 0.273821 0.271855 0.269764 0.267581 0.265343 0.263083 0.260834 0.258628 0.256496 0.254464 0.252558 0.250802 0.249214 0.247812 0.246612 0.245625 0.244863 0.244332 0.266166 0.266660 0.267366 0.268278 0.269384 0.270674 0.272133 0.273744 0.275488 0.277344 0.279289 0.281297 0.283341 0.285392 0.287419 0.289393 0.291281 0.293053 0.294680 0.296134 0.297388 0.298420 0.299212 0.299748 0.300019 0.300019 0.299748 0.299212 0.298420 0.297388 0.296134 0.294680 0.293053 0.291281 0.289393 0.287419 0.285392 0.283341 0.281297 0.279289 0.277344 0.275488 0.273744 0.272133 0.270674 0.269384 0.268278 0.267366 0.266660 0.266166 0.288352 0.288804 0.289448 0.290277 0.291282 0.292451 0.293770 0.295226 0.296799 0.298471 0.300220 0.302022 0.303854 0.305690 0.307501 0.309262 0.310945 0.312522 0.313969 0.315259 0.316372 0.317287 0.317989 0.318464 0.318703 0.318703 0.318464 0.317989 0.317287 0.316372 0.315259 0.313969 0.312522 0.310945 0.309262 0.307501 0.305690 0.303854 0.302022 0.300220 0.298471 0.296799 0.295226 0.293770 0.292451 0.291282 0.290277 0.289448 0.288804 0.288352 0.310740 0.311146 0.311723 0.312464 0.313360 0.314402 0.315577 0.316870 0.318266 0.319748 0.321296 0.322889 0.324506 0.326124 0.327719 0.329267 0.330745 0.332128 0.333396 0.334526 0.335499 0.336299 0.336912 0.337327 0.337536 0.337536 0.337327 0.336912 0.336299 0.335499 0.334526 0.333396 0.332128 0.330745 0.329267 0.327719 0.326124 0.324506 0.322889 0.321296 0.319748 0.318266 0.316870 0.315577 0.314402 0.313360 0.312464 0.311723 0.311146 0.310740 0.333182 0.333539 0.334045 0.334695 0.335480 0.336391 0.337417 0.338546 0.339763 0.341052 0.342398 0.343781 0.345184 0.346585 0.347965 0.349303 0.350579 0.351773 0.352865 0.353838 0.354675 0.355363 0.355890 0.356246 0.356426 0.356426 0.356246 0.355890 0.355363 0.354675 0.353838 0.352865 0.351773 0.350579 0.349303 0.347965 0.346585 0.345184 0.343781 0.342398 0.341052 0.339763 0.338546 0.337417 0.336391 0.335480 0.334695 0.334045 0.333539 0.333182 0.355535 0.355842 0.356276 0.356834 0.357506 0.358286 0.359163 0.360126 0.361164 0.362263 0.363409 0.364585 0.365777 0.366966 0.368136 0.369270 0.370349 0.371359 0.372281 0.373103 0.373810 0.374390 0.374834 0.375134 0.375286 0.375286 0.375134 0.374834 0.374390 0.373810 0.373103 0.372281 0.371359 0.370349 0.369270 0.368136 0.366966 0.365777 0.364585 0.363409 0.362263 0.361164 0.360126 0.359163 0.358286 0.357506 0.356834 0.356276 0.355842 0.355535 0.377667 0.377923 0.378286 0.378751 0.379312 0.379962 0.380692 0.381494 0.382357 0.383270 0.384220 0.385196 0.386182 0.387167 0.388134 0.389071 0.389962 0.390795 0.391556 0.392232 0.392814 0.393292 0.393658 0.393905 0.394029 0.394029 0.393905 0.393658 0.393292 0.392814 0.392232 0.391556 0.390795 0.389962 0.389071 0.388134 0.387167 0.386182 0.385196 0.384220 0.383270 0.382357 0.381494 0.380692 0.379962 0.379312 0.378751 0.378286 0.377923 0.377667 0.399456 0.399664 0.399957 0.400332 0.400784 0.401307 0.401896 0.402541 0.403235 0.403968 0.404731 0.405514 0.406305 0.407094 0.407868 0.408617 0.409330 0.409995 0.410603 0.411143 0.411607 0.411988 0.412280 0.412477 0.412576 0.412576 0.412477 0.412280 0.411988 0.411607 0.411143 0.410603 0.409995 0.409330 0.408617 0.407868 0.407094 0.406305 0.405514 0.404731 0.403968 0.403235 0.402541 0.401896 0.401307 0.400784 0.400332 0.399957 0.399664 0.399456 0.420796 0.420955 0.421181 0.421470 0.421818 0.422221 0.422673 0.423169 0.423702 0.424266 0.424851 0.425452 0.426058 0.426662 0.427255 0.427828 0.428373 0.428881 0.429346 0.429758 0.430113 0.430403 0.430625 0.430776 0.430851 0.430851 0.430776 0.430625 0.430403 0.430113 0.429758 0.429346 0.428881 0.428373 0.427828 0.427255 0.426662 0.426058 0.425452 0.424851 0.424266 0.423702 0.423169 0.422673 0.422221 0.421818 0.421470 0.421181 0.420955 0.420796 0.441592 0.441706 0.441868 0.442075 0.442325 0.442615 0.442939 0.443295 0.443678 0.444081 0.444501 0.444931 0.445365 0.445797 0.446221 0.446630 0.447020 0.447383 0.447714 0.448008 0.448261 0.448468 0.448627 0.448734 0.448788 0.448788 0.448734 0.448627 0.448468 0.448261 0.448008 0.447714 0.447383 0.447020 0.446630 0.446221 0.445797 0.445365 0.444931 0.444501 0.444081 0.443678 0.443295 0.442939 0.442615 0.442325 0.442075 0.441868 0.441706 0.441592 0.461765 0.461837 0.461940 0.462072 0.462231 0.462414 0.462621 0.462847 0.463089 0.463345 0.463612 0.463884 0.464159 0.464433 0.464702 0.464961 0.465207 0.465437 0.465646 0.465833 0.465992 0.466123 0.466223 0.466291 0.466325 0.466325 0.466291 0.466223 0.466123 0.465992 0.465833 0.465646 0.465437 0.465207 0.464961 0.464702 0.464433 0.464159 0.463884 0.463612 0.463345 0.463089 0.462847 0.462621 0.462414 0.462231 0.462072 0.461940 0.461837 0.461765 0.481251 0.481285 0.481334 0.481396 0.481472 0.481559 0.481657 0.481764 0.481879 0.482000 0.482127 0.482256 0.482386 0.482516 0.482643 0.482766 0.482882 0.482991 0.483090 0.483178 0.483253 0.483315 0.483363 0.483395 0.483411 0.483411 0.483395 0.483363 0.483315 0.483253 0.483178 0.483090 0.482991 0.482882 0.482766 0.482643 0.482516 0.482386 0.482256 0.482127 0.482000 0.481879 0.481764 0.481657 0.481559 0.481472 0.481396 0.481334 0.481285 0.481251 0.500000 0.500000 0.500000 0.500000 0.500000 0.500000 0.500000 0.500000 0.500000 0.500000 0.500000 0.500000 0.500000 0.500000 0.500000 0.500000 0.500000 0.500000 0.500000 0.500000 0.500000 0.500000 0.500000 0.500000 0.500000 0.500000 0.500000 0.500000 0.500000 0.500000 0.500000 0.500000 0.500000 0.500000 0.500000 0.500000 0.500000 0.500000 0.500000 0.500000 0.500000 0.500000 0.500000 0.500000 0.500000 0.500000 0.500000 0.500000 0.500000 0.500000 0.000000 0.000000 0.000002 0.000007 0.000019 0.000046 0.000093 0.000170 0.000289 0.000461 0.000701 0.001024 0.001446 0.001981 0.002644 0.003445 0.004387 0.005465 0.006657 0.007925 0.009205 0.010415 0.011455 0.012221 0.012629 0.012629 0.012221 0.011455 0.010415 0.009205 0.007925 0.006657 0.005465 0.004387 0.003445 0.002644 0.001981 0.001446 0.001024 0.000701 0.000461 0.000289 0.000170 0.000093 0.000046 0.000019 0.000007 0.000002 0.000000 0.000000 0.000000 0.000001 0.000002 0.000008 0.000023 0.000051 0.000102 0.000184 0.000309 0.000491 0.000742 0.001081 0.001521 0.002080 0.002771 0.003605 0.004586 0.005706 0.006946 0.008262 0.009591 0.010846 0.011924 0.012718 0.013141 0.013141 0.012718 0.011924 0.010846 0.009591 0.008262 0.006946 0.005706 0.004586 0.003605 0.002771 0.002080 0.001521 0.001081 0.000742 0.000491 0.000309 0.000184 0.000102 0.000051 0.000023 0.000008 0.000002 0.000001 0.000000 0.000002 0.000003 0.000006 0.000014 0.000032 0.000065 0.000123 0.000214 0.000351 0.000546 0.000816 0.001176 0.001643 0.002233 0.002961 0.003837 0.004864 0.006035 0.007328 0.008699 0.010081 0.011384 0.012501 0.013324 0.013762 0.013762 0.013324 0.012501 0.011384 0.010081 0.008699 0.007328 0.006035 0.004864 0.003837 0.002961 0.002233 0.001643 0.001176 0.000816 0.000546 0.000351 0.000214 0.000123 0.000065 0.000032 0.000014 0.000006 0.000003 0.000002 0.000007 0.000009 0.000014 0.000027 0.000051 0.000092 0.000160 0.000265 0.000418 0.000635 0.000929 0.001319 0.001820 0.002450 0.003223 0.004149 0.005232 0.006462 0.007816 0.009247 0.010686 0.012040 0.013199 0.014051 0.014503 0.014503 0.014051 0.013199 0.012040 0.010686 0.009247 0.007816 0.006462 0.005232 0.004149 0.003223 0.002450 0.001820 0.001319 0.000929 0.000635 0.000418 0.000265 0.000160 0.000092 0.000051 0.000027 0.000014 0.000009 0.000007 0.000022 0.000025 0.000034 0.000052 0.000085 0.000138 0.000221 0.000344 0.000520 0.000764 0.001090 0.001517 0.002062 0.002741 0.003568 0.004555 0.005702 0.007000 0.008422 0.009920 0.011421 0.012828 0.014029 0.014911 0.015379 0.015379 0.014911 0.014029 0.012828 0.011421 0.009920 0.008422 0.007000 0.005702 0.004555 0.003568 0.002741 0.002062 0.001517 0.001090 0.000764 0.000520 0.000344 0.000221 0.000138 0.000085 0.000052 0.000034 0.000025 0.000022 0.000053 0.000058 0.000072 0.000098 0.000142 0.000211 0.000313 0.000461 0.000666 0.000944 0.001311 0.001784 0.002381 0.003119 0.004012 0.005068 0.006290 0.007664 0.009162 0.010732 0.012299 0.013763 0.015008 0.015920 0.016403 0.016403 0.015920 0.015008 0.013763 0.012299 0.010732 0.009162 0.007664 0.006290 0.005068 0.004012 0.003119 0.002381 0.001784 0.001311 0.000944 0.000666 0.000461 0.000313 0.000211 0.000142 0.000098 0.000072 0.000058 0.000053 0.000111 0.000118 0.000139 0.000176 0.000235 0.000323 0.000451 0.000628 0.000870 0.001190 0.001606 0.002135 0.002794 0.003602 0.004570 0.005707 0.007013 0.008472 0.010054 0.011703 0.013340 0.014862 0.016153 0.017095 0.017593 0.017593 0.017095 0.016153 0.014862 0.013340 0.011703 0.010054 0.008472 0.007013 0.005707 0.004570 0.003602 0.002794 0.002135 0.001606 0.001190 0.000870 0.000628 0.000451 0.000323 0.000235 0.000176 0.000139 0.000118 0.000111 0.000211 0.000221 0.000250 0.000300 0.000378 0.000491 0.000649 0.000863 0.001148 0.001519 0.001993 0.002588 0.003321 0.004209 0.005264 0.006492 0.007892 0.009446 0.011118 0.012851 0.014562 0.016145 0.017482 0.018454 0.018968 0.018968 0.018454 0.017482 0.016145 0.014562 0.012851 0.011118 0.009446 0.007892 0.006492 0.005264 0.004209 0.003321 0.002588 0.001993 0.001519 0.001148 0.000863 0.000649 0.000491 0.000378 0.000300 0.000250 0.000221 0.000211 0.000369 0.000384 0.000423 0.000490 0.000590 0.000733 0.000927 0.001186 0.001523 0.001954 0.002496 0.003167 0.003985 0.004964 0.006117 0.007448 0.008951 0.010608 0.012379 0.014201 0.015989 0.017635 0.019018 0.020020 0.020548 0.020548 0.020020 0.019018 0.017635 0.015989 0.014201 0.012379 0.010608 0.008951 0.007448 0.006117 0.004964 0.003985 0.003167 0.002496 0.001954 0.001523 0.001186 0.000927 0.000733 0.000590 0.000490 0.000423 0.000384 0.000369 0.000609 0.000629 0.000681 0.000767 0.000895 0.001073 0.001311 0.001622 0.002019 0.002520 0.003141 0.003900 0.004813 0.005896 0.007158 0.008601 0.010219 0.011986 0.013861 0.015777 0.017645 0.019354 0.020784 0.021816 0.022359 0.022359 0.021816 0.020784 0.019354 0.017645 0.015777 0.013861 0.011986 0.010219 0.008601 0.007158 0.005896 0.004813 0.003900 0.003141 0.002520 0.002019 0.001622 0.001311 0.001073 0.000895 0.000767 0.000681 0.000629 0.000609 0.000958 0.000985 0.001052 0.001162 0.001322 0.001541 0.001830 0.002200 0.002668 0.003249 0.003959 0.004817 0.005838 0.007035 0.008417 0.009984 0.011724 0.013610 0.015594 0.017608 0.019557 0.021331 0.022807 0.023869 0.024425 0.024425 0.023869 0.022807 0.021331 0.019557 0.017608 0.015594 0.013610 0.011724 0.009984 0.008417 0.007035 0.005838 0.004817 0.003959 0.003249 0.002668 0.002200 0.001830 0.001541 0.001322 0.001162 0.001052 0.000985 0.000958 0.001448 0.001483 0.001568 0.001706 0.001904 0.002171 0.002518 0.002957 0.003505 0.004176 0.004987 0.005955 0.007095 0.008419 0.009931 0.011631 0.013501 0.015512 0.017611 0.019725 0.021757 0.023594 0.025116 0.026206 0.026776 0.026776 0.026206 0.025116 0.023594 0.021757 0.019725 0.017611 0.015512 0.013501 0.011631 0.009931 0.008419 0.007095 0.005955 0.004987 0.004176 0.003505 0.002957 0.002518 0.002171 0.001904 0.001706 0.001568 0.001483 0.001448 0.002117 0.002163 0.002269 0.002440 0.002681 0.003003 0.003416 0.003934 0.004571 0.005343 0.006266 0.007356 0.008626 0.010086 0.011740 0.013580 0.015589 0.017729 0.019946 0.022161 0.024276 0.026177 0.027742 0.028860 0.029443 0.029443 0.028860 0.027742 0.026177 0.024276 0.022161 0.019946 0.017729 0.015589 0.013580 0.011740 0.010086 0.008626 0.007356 0.006266 0.005343 0.004571 0.003934 0.003416 0.003003 0.002681 0.002440 0.002269 0.002163 0.002117 0.003010 0.003070 0.003201 0.003408 0.003699 0.004083 0.004570 0.005175 0.005912 0.006795 0.007841 0.009064 0.010475 0.012082 0.013885 0.015875 0.018026 0.020301 0.022637 0.024954 0.027151 0.029113 0.030720 0.031864 0.032459 0.032459 0.031864 0.030720 0.029113 0.027151 0.024954 0.022637 0.020301 0.018026 0.015875 0.013885 0.012082 0.010475 0.009064 0.007841 0.006795 0.005912 0.005175 0.004570 0.004083 0.003699 0.003408 0.003201 0.003070 0.003010 0.004178 0.004253 0.004413 0.004663 0.005009 0.005463 0.006033 0.006735 0.007581 0.008586 0.009766 0.011131 0.012693 0.014456 0.016416 0.018560 0.020859 0.023269 0.025725 0.028142 0.030419 0.032440 0.034087 0.035255 0.035861 0.035861 0.035255 0.034087 0.032440 0.030419 0.028142 0.025725 0.023269 0.020859 0.018560 0.016416 0.014456 0.012693 0.011131 0.009766 0.008586 0.007581 0.006735 0.006033 0.005463 0.005009 0.004663 0.004413 0.004253 0.004178 0.005679 0.005772 0.005965 0.006262 0.006671 0.007201 0.007863 0.008670 0.009635 0.010773 0.012095 0.013613 0.015334 0.017259 0.019382 0.021684 0.024132 0.026678 0.029252 0.031768 0.034120 0.036197 0.037881 0.039070 0.039686 0.039686 0.039070 0.037881 0.036197 0.034120 0.031768 0.029252 0.026678 0.024132 0.021684 0.019382 0.017259 0.015334 0.013613 0.012095 0.010773 0.009635 0.008670 0.007863 0.007201 0.006671 0.006262 0.005965 0.005772 0.005679 0.007575 0.007691 0.007921 0.008271 0.008749 0.009363 0.010124 0.011045 0.012138 