# vtk DataFile Version 3.0
vtk output
ASCII
DATASET STRUCTURED_POINTS
DIMENSIONS 50 50 50
SPACING 0.020408 0.000000 0.020408
ORIGIN 0.000000 0.000000 0.000000
POINT_DATA 125000
SCALARS RTData float
LOOKUP_TABLE default
0.000000 0.000000 0.000004 0.000018 0.000057 0.000139 0.000290 0.000538 0.000918 0.001469 0.002234 0.003259 0.004588 0.006267 0.008333 0.010810 0.013705 0.016992 0.020600 0.024407 0.028226 0.031810 0.034870 0.037117 0.038309 0.038309 0.037117 0.034870 0.031810 0.028226 0.024407 0.020600 0.016992 0.013705 0.010810 0.008333 0.006267 0.004588 0.003259 0.002234 0.001469 0.000918 0.000538 0.000290 0.000139 0.000057 0.000018 0.000004 0.000000 0.000000 0.000000 0.000000 0.000004 0.000018 0.000057 0.000139 0.000290 0.000538 0.000918 0.001469 0.002234 0.003259 0.004588 0.006267 0.008333 0.010810 0.013705 0.016992 0.020600 0.024407 0.028226 0.031810 0.034870 0.037117 0.038309 0.038309 0.037117 0.034870 0.031810 0.028226 0.024407 0.020600 0.016992 0.013705 0.010810 0.008333 0.006267 0.004588 0.003259 0.002234 0.001469 0.000918 0.000538 0.000290 0.000139 0.000057 0.000018 0.000004 0.000000 0.000000 0.000000 0.000000 0.000004 0.000018 0.000057 0.000139 0.000290 0.000538 0.000918 0.001469 0.002234 0.003259 0.004588 0.006267 0.008333 0.010810 0.013705 0.016992 0.020600 0.024407 0.028226 0.031810 0.034870 0.037117 0.038309 0.038309 0.037117 0.034870 0.031810 0.028226 0.024407 0.020600 0.016992 0.013705 0.010810 0.008333 0.006267 0.004588 0.003259 0.002234 0.001469 0.000918 0.000538 0.000290 0.000139 0.000057 0.000018 0.000004 0.000000 0.000000 0.000000 0.000000 0.000004 0.000018 0.000057 0.000139 0.000290 0.000538 0.000918 0.001469 0.002234 0.003259 0.004588 0.006267 0.008333 0.010810 0.013705 0.016992 0.020600 0.024407 0.028226 0.031810 0.034870 0.037117 0.038309 0.038309 0.037117 0.034870 0.031810 0.028226 0.024407 0.020600 0.016992 0.013705 0.010810 0.008333 0.006267 0.004588 0.003259 0.002234 0.001469 0.000918 0.000538 0.000290 0.000139 0.000057 0.000018 0.000004 0.000000 0.000000 0.000000 0.000000 0.000004 0.000018 0.000057 0.000139 0.000290 0.000538 0.000918 0.001469 0.002234 0.003259 0.004588 0.006267 0.008333 0.010810 0.013705 0.016992 0.020600 0.024407 0.028226 0.031810 0.034870 0.037117 0.038309 0.038309 0.037117 0.034870 0.031810 0.028226 0.024407 0.020600 0.016992 0.013705 0.010810 0.008333 0.006267 0.004588 0.003259 0.002234 0.001469 0.000918 0.000538 0.000290 0.000139 0.000057 0.000018 0.000004 0.000000 0.000000 0.000000 0.000000 0.000004 0.000018 0.000057 0.000139 0.000290 0.000538 0.000918 0.001469 0.002234 0.003259 0.004588 0.006267 0.008333 0.010810 0.013705 0.016992 0.020600 0.024407 0.028226 0.031810 0.034870 0.037117 0.038309 0.038309 0.037117 0.034870 0.031810 0.028226 0.024407 0.020600 0.016992 0.013705 0.010810 0.008333 0.006267 0.004588 0.003259 0.002234 0.001469 0.000918 0.000538 0.000290 0.000139 0.000057 0.000018 0.000004 0.000000 0.000000 0.000000 0.000000 0.000004 0.000018 0.000057 0.000139 0.000290 0.000538 0.000918 0.001469 0.002234 0.003259 0.004588 0.006267 0.008333 0.010810 0.013705 0.016992 0.020600 0.024407 0.028226 0.031810 0.034870 0.037117 0.038309 0.038309 0.037117 0.034870 0.031810 0.028226 0.024407 0.020600 0.016992 0.013705 0.010810 0.008333 0.006267 0.004588 0.003259 0.002234 0.001469 0.000918 0.000538 0.000290 0.000139 0.000057 0.000018 0.000004 0.000000 0.000000 0.000000 0.000000 0.000004 0.000018 0.000057 0.000139 0.000290 0.000538 0.000918 0.001469 0.002234 0.003259 0.004588 0.006267 0.008333 0.010810 0.013705 0.016992 0.020600 0.024407 0.028226 0.031810 0.034870 0.037117 0.038309 0.038309 0.037117 0.034870 0.031810 0.028226 0.024407 0.020600 0.016992 0.013705 0.010810 0.008333 0.006267 0.004588 0.003259 0.002234 0.001469 0.000918 0.000538 0.000290 0.000139 0.000057 0.000018 0.000004 0.000000 0.000000 0.000000 0.000000 0.000004 0.000018 0.000057 0.000139 0.000290 0.000538 0.000918 0.001469 0.002234 0.003259 0.004588 0.006267 0.008333 0.010810 0.013705 0.016992 0.020600 0.024407 0.028226 0.031810 0.034870 0.037117 0.038309 0.038309 0.037117 0.034870 0.031810 0.028226 0.024407 0.020600 0.016992 0.013705 0.010810 0.008333 0.006267 0.004588 0.003259 0.002234 0.001469 0.000918 0.000538 0.000290 0.000139 0.000057 0.000018 0.000004 0.000000 0.000000 0.000000 0.000000 0.000004 0.000018 0.000057 0.000139 0.000290 0.000538 0.000918 0.001469 0.002234 0.003259 0.004588 0.006267 0.008333 0.010810 0.013705 0.016992 0.020600 0.024407 0.028226 0.031810 0.034870 0.037117 0.038309 0.038309 0.037117 0.034870 0.031810 0.028226 0.024407 0.020600 0.016992 0.013705 0.010810 0.008333 0.006267 0.004588 0.003259 0.002234 0.001469 0.000918 0.000538 0.000290 0.000139 0.000057 0.000018 0.000004 0.000000 0.000000 0.000000 0.000000 0.000004 0.000018 0.000057 0.000139 0.000290 0.000538 0.000918 0.001469 0.002234 0.003259 0.004588 0.006267 0.008333 0.010810 0.013705 0.016992 0.020600 0.024407 0.028226 0.031810 0.034870 0.037117 0.038309 0.038309 0.037117 0.034870 0.031810 0.028226 0.024407 0.020600 0.016992 0.013705 0.010810 0.008333 0.006267 0.004588 0.003259 0.002234 0.001469 0.000918 0.000538 0.000290 0.000139 0.000057 0.000018 0.000004 0.000000 0.000000 0.000000 0.000000 0.000004 0.000018 0.000057 0.000139 0.000290 0.000538 0.000918 0.001469 0.002234 0.003259 0.004588 0.006267 0.008333 0.010810 0.013705 0.016992 0.020600 0.024407 0.028226 0.031810 0.034870 0.037117 0.038309 0.038309 0.037117 0.034870 0.031810 0.028226 0.024407 0.020600 0.016992 0.013705 0.010810 0.008333 0.006267 0.004588 0.003259 0.002234 0.001469 0.000918 0.000538 0.000290 0.000139 0.000057 0.000018 0.000004 0.000000 0.000000 0.000000 0.000000 0.000004 0.000018 0.000057 0.000139 0.000290 0.000538 0.000918 0.001469 0.002234 0.003259 0.004588 0.006267 0.008333 0.010810 0.013705 0.016992 0.020600 0.024407 0.028226 0.031810 0.034870 0.037117 0.038309 0.038309 0.037117 0.034870 0.031810 0.028226 0.024407 0.020600 0.016992 0.013705 0.010810 0.008333 0.006267 0.004588 0.003259 0.002234 0.001469 0.000918 0.000538 0.000290 0.000139 0.000057 0.000018 0.000004 0.000000 0.000000 0.000000 0.000000 0.000004 0.000018 0.000057 0.000139 0.000290 0.000538 0.000918 0.001469 0.002234 0.003259 0.004588 0.006267 0.008333 0.010810 0.013705 0.016992 0.020600 0.024407 0.028226 0.031810 0.034870 0.037117 0.038309 0.038309 0.037117 0.034870 0.031810 0.028226 0.024407 0.020600 0.016992 0.013705 0.010810 0.008333 0.006267 0.004588 0.003259 0.002234 0.001469 0.000918 0.000538 0.000290 0.000139 0.000057 0.000018 0.000004 0.000000 0.000000 0.000000 0.000000 0.000004 0.000018 0.000057 0.000139 0.000290 0.000538 0.000918 0.001469 0.002234 0.003259 0.004588 0.006267 0.008333 0.010810 0.013705 0.016992 0.020600 0.024407 0.028226 0.031810 0.034870 0.037117 0.038309 0.038309 0.037117 0.034870 0.031810 0.028226 0.024407 0.020600 0.016992 0.013705 0.010810 0.008333 0.006267 0.004588 0.003259 0.002234 0.001469 0.000918 0.000538 0.000290 0.000139 0.000057 0.000018 0.000004 0.000000 0.000000 0.000000 0.000000 0.000004 0.000018 0.000057 0.000139 0.000290 0.000538 0.000918 0.001469 0.002234 0.003259 0.004588 0.006267 0.008333 0.010810 0.013705 0.016992 0.020600 0.024407 0.028226 0.031810 0.034870 0.037117 0.038309 0.038309 0.037117 0.034870 0.031810 0.028226 0.024407 0.020600 0.016992 0.013705 0.010810 0.008333 0.006267 0.004588 0.003259 0.002234 0.001469 0.000918 0.000538 0.000290 0.000139 0.000057 0.000018 0.000004 0.000000 0.000000 0.000000 0.000000 0.000004 0.000018 0.000057 0.000139 0.000290 0.000538 0.000918 0.001469 0.002234 0.003259 0.004588 0.006267 0.008333 0.010810 0.013705 0.016992 0.020600 0.024407 0.028226 0.031810 0.034870 0.037117 0.038309 0.038309 0.037117 0.034870 0.031810 0.028226 0.024407 0.020600 0.016992 0.013705 0.010810 0.008333 0.006267 0.004588 0.003259 0.002234 0.001469 0.000918 0.000538 0.000290 0.000139 0.000057 0.000018 0.000004 0.000000 0.000000 0.000000 0.000000 0.000004 0.000018 0.000057 0.000139 0.000290 0.000538 0.000918 0.001469 0.002234 0.003259 0.004588 0.006267 0.008333 0.010810 0.013705 0.016992 0.020600 0.024407 0.028226 0.031810 0.034870 0.037117 0.038309 0.038309 0.037117 0.034870 0.031810 0.028226 0.024407 0.020600 0.016992 0.013705 0.010810 0.008333 0.006267 0.004588 0.003259 0.002234 0.001469 0.000918 0.000538 0.000290 0.000139 0.000057 0.000018 0.000004 0.000000 0.000000 0.000000 0.000000 0.000004 0.000018 0.000057 0.000139 0.000290 0.000538 0.000918 0.001469 0.002234 0.003259 0.004588 0.006267 0.008333 0.010810 0.013705 0.016992 0.020600 0.024407 0.028226 0.031810 0.034870 0.037117 0.038309 0.038309 0.037117 0.034870 0.031810 0.028226 0.024407 0.020600 0.016992 0.013705 0.010810 0.008333 0.006267 0.004588 0.003259 0.002234 0.001469 0.000918 0.000538 0.000290 0.000139 0.000057 0.000018 0.000004 0.000000 0.000000 0.000000 0.000000 0.000004 0.000018 0.000057 0.000139 0.000290 0.000538 0.000918 0.001469 0.002234 0.003259 0.004588 0.006267 0.008333 0.010810 0.013705 0.016992 0.020600 0.024407 0.028226 0.031810 0.034870 0.037117 0.038309 0.038309 0.037117 0.034870 0.031810 0.028226 0.024407 0.020600 0.016992 0.013705 0.010810 0.008333 0.006267 0.004588 0.003259 0.002234 0.001469 0.000918 0.000538 0.000290 0.000139 0.000057 0.000018 0.000004 0.000000 0.000000 0.000000 0.000000 0.000004 0.000018 0.000057 0.000139 0.000290 0.000538 0.000918 0.001469 0.002234 0.003259 0.004588 0.006267 0.008333 0.010810 0.013705 0.016992 0.020600 0.024407 0.028226 0.031810 0.034870 0.037117 0.038309 0.038309 0.037117 0.034870 0.031810 0.028226 0.024407 0.020600 0.016992 0.013705 0.010810 0.008333 0.006267 0.004588 0.003259 0.002234 0.001469 0.000918 0.000538 0.000290 0.000139 0.000057 0.000018 0.000004 0.000000 0.000000 0.000000 0.000000 0.000004 0.000018 0.000057 0.000139 0.000290 0.000538 0.000918 0.001469 0.002234 0.003259 0.004588 0.006267 0.008333 0.010810 0.013705 0.016992 0.020600 0.024407 0.028226 0.031810 0.034870 0.037117 0.038309 0.038309 0.037117 0.034870 0.031810 0.028226 0.024407 0.020600 0.016992 0.013705 0.010810 0.008333 0.006267 0.004588 0.003259 0.002234 0.001469 0.000918 0.000538 0.000290 0.000139 0.000057 0.000018 0.000004 0.000000 0.000000 0.000000 0.000000 0.000004 0.000018 0.000057 0.000139 0.000290 0.000538 0.000918 0.001469 0.002234 0.003259 0.004588 0.006267 0.008333 0.010810 0.013705 0.016992 0.020600 0.024407 0.028226 0.031810 0.034870 0.037117 0.038309 0.038309 0.037117 0.034870 0.031810 0.028226 0.024407 0.020600 0.016992 0.013705 0.010810 0.008333 0.006267 0.004588 0.003259 0.002234 0.001469 0.000918 0.000538 0.000290 0.000139 0.000057 0.000018 0.000004 0.000000 0.000000 0.000000 0.000000 0.000004 0.000018 0.000057 0.000139 0.000290 0.000538 0.000918 0.001469 0.002234 0.003259 0.004588 0.006267 0.008333 0.010810 0.013705 0.016992 0.020600 0.024407 0.028226 0.031810 0.034870 0.037117 0.038309 0.038309 0.037117 0.034870 0.031810 0.028226 0.024407 0.020600 0.016992 0.013705 0.010810 0.008333 0.006267 0.004588 0.003259 0.002234 0.001469 0.000918 0.000538 0.000290 0.000139 0.000057 0.000018 0.000004 0.000000 0.000000 0.000000 0.000000 0.000004 0.000018 0.000057 0.000139 0.000290 0.000538 0.000918 0.001469 0.002234 0.003259 0.004588 0.006267 0.008333 0.010810 0.013705 0.016992 0.020600 0.024407 0.028226 0.031810 0.034870 0.037117 0.038309 0.038309 0.037117 0.034870 0.031810 0.028226 0.024407 0.020600 0.016992 0.013705 0.010810 0.008333 0.006267 0.004588 0.003259 0.002234 0.001469 0.000918 0.000538 0.000290 0.000139 0.000057 0.000018 0.000004 0.000000 0.000000 0.000000 0.000000 0.000004 0.000018 0.000057 0.000139 0.000290 0.000538 0.000918 0.001469 0.002234 0.003259 0.004588 0.006267 0.008333 0.010810 0.013705 0.016992 0.020600 0.024407 0.028226 0.031810 0.034870 0.037117 0.038309 0.038309 0.037117 0.034870 0.031810 0.028226 0.024407 0.020600 0.016992 0.013705 0.010810 0.008333 0.006267 0.004588 0.003259 0.002234 0.001469 0.000918 0.000538 0.000290 0.000139 0.000057 0.000018 0.000004 0.000000 0.000000 0.000000 0.000000 0.000004 0.000018 0.000057 0.000139 0.000290 0.000538 0.000918 0.001469 0.002234 0.003259 0.004588 0.006267 0.008333 0.010810 0.013705 0.016992 0.020600 0.024407 0.028226 0.031810 0.034870 0.037117 0.038309 0.038309 0.037117 0.034870 0.031810 0.028226 0.024407 0.020600 0.016992 0.013705 0.010810 0.008333 0.006267 0.004588 0.003259 0.002234 0.001469 0.000918 0.000538 0.000290 0.000139 0.000057 0.000018 0.000004 0.000000 0.000000 0.000000 0.000000 0.000004 0.000018 0.000057 0.000139 0.000290 0.000538 0.000918 0.001469 0.002234 0.003259 0.004588 0.006267 0.008333 0.010810 0.013705 0.016992 0.020600 0.024407 0.028226 0.031810 0.034870 0.037117 0.038309 0.038309 0.037117 0.034870 0.031810 0.028226 0.024407 0.020600 0.016992 0.013705 0.010810 0.008333 0.006267 0.004588 0.003259 0.002234 0.001469 0.000918 0.000538 0.000290 0.000139 0.000057 0.000018 0.000004 0.000000 0.000000 0.000000 0.000000 0.000004 0.000018 0.000057 0.000139 0.000290 0.000538 0.000918 0.001469 0.002234 0.003259 0.004588 0.006267 0.008333 0.010810 0.013705 0.016992 0.020600 0.024407 0.028226 0.031810 0.034870 0.037117 0.038309 0.038309 0.037117 0.034870 0.031810 0.028226 0.024407 0.020600 0.016992 0.013705 0.010810 0.008333 0.006267 0.004588 0.003259 0.002234 0.001469 0.000918 0.000538 0.000290 0.000139 0.000057 0.000018 0.000004 0.000000 0.000000 0.000000 0.000000 0.000004 0.000018 0.000057 0.000139 0.000290 0.000538 0.000918 0.001469 0.002234 0.003259 0.004588 0.006267 0.008333 0.010810 0.013705 0.016992 0.020600 0.024407 0.028226 0.031810 0.034870 0.037117 0.038309 0.038309 0.037117 0.034870 0.031810 0.028226 0.024407 0.020600 0.016992 0.013705 0.010810 0.008333 0.006267 0.004588 0.003259 0.002234 0.001469 0.000918 0.000538 0.000290 0.000139 0.000057 0.000018 0.000004 0.000000 0.000000 0.000000 0.000000 0.000004 0.000018 0.000057 0.000139 0.000290 0.000538 0.000918 0.001469 0.002234 0.003259 0.004588 0.006267 0.008333 0.010810 0.013705 0.016992 0.020600 0.024407 0.028226 0.031810 0.034870 0.037117 0.038309 0.038309 0.037117 0.034870 0.031810 0.028226 0.024407 0.020600 0.016992 0.013705 0.010810 0.008333 0.006267 0.004588 0.003259 0.002234 0.001469 0.000918 0.000538 0.000290 0.000139 0.000057 0.000018 0.000004 0.000000 0.000000 0.000000 0.000000 0.000004 0.000018 0.000057 0.000139 0.000290 0.000538 0.000918 0.001469 0.002234 0.003259 0.004588 0.006267 0.008333 0.010810 0.013705 0.016992 0.020600 0.024407 0.028226 0.031810 0.034870 0.037117 0.038309 0.038309 0.037117 0.034870 0.031810 0.028226 0.024407 0.020600 0.016992 0.013705 0.010810 0.008333 0.006267 0.004588 0.003259 0.002234 0.001469 0.000918 0.000538 0.000290 0.000139 0.000057 0.000018 0.000004 0.000000 0.000000 0.000000 0.000000 0.000004 0.000018 0.000057 0.000139 0.000290 0.000538 0.000918 0.001469 0.002234 0.003259 0.004588 0.006267 0.008333 0.010810 0.013705 0.016992 0.020600 0.024407 0.028226 0.031810 0.034870 0.037117 0.038309 0.038309 0.037117 0.034870 0.031810 0.028226 0.024407 0.020600 0.016992 0.013705 0.010810 0.008333 0.006267 0.004588 0.003259 0.002234 0.001469 0.000918 0.000538 0.000290 0.000139 0.000057 0.000018 0.000004 0.000000 0.000000 0.000000 0.000000 0.000004 0.000018 0.000057 0.000139 0.000290 0.000538 0.000918 0.001469 0.002234 0.003259 0.004588 0.006267 0.008333 0.010810 0.013705 0.016992 0.020600 0.024407 0.028226 0.031810 0.034870 0.037117 0.038309 0.038309 0.037117 0.034870 0.031810 0.028226 0.024407 0.020600 0.016992 0.013705 0.010810 0.008333 0.006267 0.004588 0.003259 0.002234 0.001469 0.000918 0.000538 0.000290 0.000139 0.000057 0.000018 0.000004 0.000000 0.000000 0.000000 0.000000 0.000004 0.000018 0.000057 0.000139 0.000290 0.000538 0.000918 0.001469 0.002234 0.003259 0.004588 0.006267 0.008333 0.010810 0.013705 0.016992 0.020600 0.024407 0.028226 0.031810 0.034870 0.037117 0.038309 0.038309 0.037117 0.034870 0.031810 0.028226 0.024407 0.020600 0.016992 0.013705 0.010810 0.008333 0.006267 0.004588 0.003259 0.002234 0.001469 0.000918 0.000538 0.000290 0.000139 0.000057 0.000018 0.000004 0.000000 0.000000 0.000000 0.000000 0.000004 0.000018 0.000057 0.000139 0.000290 0.000538 0.000918 0.001469 0.002234 0.003259 0.004588 0.006267 0.008333 0.010810 0.013705 0.016992 0.020600 0.024407 0.028226 0.031810 0.034870 0.037117 0.038309 0.038309 0.037117 0.034870 0.031810 0.028226 0.024407 0.020600 0.016992 0.013705 0.010810 0.008333 0.006267 0.004588 0.003259 0.002234 0.001469 0.000918 0.000538 0.000290 0.000139 0.000057 0.000018 0.000004 0.000000 0.000000 0.000000 0.000000 0.000004 0.000018 0.000057 0.000139 0.000290 0.000538 0.000918 0.001469 0.002234 0.003259 0.004588 0.006267 0.008333 0.010810 0.013705 0.016992 0.020600 0.024407 0.028226 0.031810 0.034870 0.037117 0.038309 0.038309 0.037117 0.034870 0.031810 0.028226 0.024407 0.020600 0.016992 0.013705 0.010810 0.008333 0.006267 0.004588 0.003259 0.002234 0.001469 0.000918 0.000538 0.000290 0.000139 0.000057 0.000018 0.000004 0.000000 0.000000 0.000000 0.000000 0.000004 0.000018 0.000057 0.000139 0.000290 0.000538 0.000918 0.001469 0.002234 0.003259 0.004588 0.006267 0.008333 0.010810 0.013705 0.016992 0.020600 0.024407 0.028226 0.031810 0.034870 0.037117 0.038309 0.038309 0.037117 0.034870 0.031810 0.028226 0.024407 0.020600 0.016992 0.013705 0.010810 0.008333 0.006267 0.004588 0.003259 0.002234 0.001469 0.000918 0.000538 0.000290 0.000139 0.000057 0.000018 0.000004 0.000000 0.000000 0.000000 0.000000 0.000004 0.000018 0.000057 0.000139 0.000290 0.000538 0.000918 0.001469 0.002234 0.003259 0.004588 0.006267 0.008333 0.010810 0.013705 0.016992 0.020600 0.024407 0.028226 0.031810 0.034870 0.037117 0.038309 0.038309 0.037117 0.034870 0.031810 0.028226 0.024407 0.020600 0.016992 0.013705 0.010810 0.008333 0.006267 0.004588 0.003259 0.002234 0.001469 0.000918 0.000538 0.000290 0.000139 0.000057 0.000018 0.000004 0.000000 0.000000 0.000000 0.000000 0.000004 0.000018 0.000057 0.000139 0.000290 0.000538 0.000918 0.001469 0.002234 0.003259 0.004588 0.006267 0.008333 0.010810 0.013705 0.016992 0.020600 0.024407 0.028226 0.031810 0.034870 0.037117 0.038309 0.038309 0.037117 0.034870 0.031810 0.028226 0.024407 0.020600 0.016992 0.013705 0.010810 0.008333 0.006267 0.004588 0.003259 0.002234 0.001469 0.000918 0.000538 0.000290 0.000139 0.000057 0.000018 0.000004 0.000000 0.000000 0.000000 0.000000 0.000004 0.000018 0.000057 0.000139 0.000290 0.000538 0.000918 0.001469 0.002234 0.003259 0.004588 0.006267 0.008333 0.010810 0.013705 0.016992 0.020600 0.024407 0.028226 0.031810 0.034870 0.037117 0.038309 0.038309 0.037117 0.034870 0.031810 0.028226 0.024407 0.020600 0.016992 0.013705 0.010810 0.008333 0.006267 0.004588 0.003259 0.002234 0.001469 0.000918 0.000538 0.000290 0.000139 0.000057 0.000018 0.000004 0.000000 0.000000 0.000000 0.000000 0.000004 0.000018 0.000057 0.000139 0.000290 0.000538 0.000918 0.001469 0.002234 0.003259 0.004588 0.006267 0.008333 0.010810 0.013705 0.016992 0.020600 0.024407 0.028226 0.031810 0.034870 0.037117 0.038309 0.038309 0.037117 0.034870 0.031810 0.028226 0.024407 0.020600 0.016992 0.013705 0.010810 0.008333 0.006267 0.004588 0.003259 0.002234 0.001469 0.000918 0.000538 0.000290 0.000139 0.000057 0.000018 0.000004 0.000000 0.000000 0.000000 0.000000 0.000004 0.000018 0.000057 0.000139 0.000290 0.000538 0.000918 0.001469 0.002234 0.003259 0.004588 0.006267 0.008333 0.010810 0.013705 0.016992 0.020600 0.024407 0.028226 0.031810 0.034870 0.037117 0.038309 0.038309 0.037117 0.034870 0.031810 0.028226 0.024407 0.020600 0.016992 0.013705 0.010810 0.008333 0.006267 0.004588 0.003259 0.002234 0.001469 0.000918 0.000538 0.000290 0.000139 0.000057 0.000018 0.000004 0.000000 0.000000 0.000000 0.000000 0.000004 0.000018 0.000057 0.000139 0.000290 0.000538 0.000918 0.001469 0.002234 0.003259 0.004588 0.006267 0.008333 0.010810 0.013705 0.016992 0.020600 0.024407 0.028226 0.031810 0.034870 0.037117 0.038309 0.038309 0.037117 0.034870 0.031810 0.028226 0.024407 0.020600 0.016992 0.013705 0.010810 0.008333 0.006267 0.004588 0.003259 0.002234 0.001469 0.000918 0.000538 0.000290 0.000139 0.000057 0.000018 0.000004 0.000000 0.000000 0.000000 0.000000 0.000004 0.000018 0.000057 0.000139 0.000290 0.000538 0.000918 0.001469 0.002234 0.003259 0.004588 0.006267 0.008333 0.010810 0.013705 0.016992 0.020600 0.024407 0.028226 0.031810 0.034870 0.037117 0.038309 0.038309 0.037117 0.034870 0.031810 0.028226 0.024407 0.020600 0.016992 0.013705 0.010810 0.008333 0.006267 0.004588 0.003259 0.002234 0.001469 0.000918 0.000538 0.000290 0.000139 0.000057 0.000018 0.000004 0.000000 0.000000 0.000000 0.000000 0.000004 0.000018 0.000057 0.000139 0.000290 0.000538 0.000918 0.001469 0.002234 0.003259 0.004588 0.006267 0.008333 0.010810 0.013705 0.016992 0.020600 0.024407 0.028226 0.031810 0.034870 0.037117 0.038309 0.038309 0.037117 0.034870 0.031810 0.028226 0.024407 0.020600 0.016992 0.013705 0.010810 0.008333 0.006267 0.004588 0.003259 0.002234 0.001469 0.000918 0.000538 0.000290 0.000139 0.000057 0.000018 0.000004 0.000000 0.000000 0.000000 0.000000 0.000004 0.000018 0.000057 0.000139 0.000290 0.000538 0.000918 0.001469 0.002234 0.003259 0.004588 0.006267 0.008333 0.010810 0.013705 0.016992 0.020600 0.024407 0.028226 0.031810 0.034870 0.037117 0.038309 0.038309 0.037117 0.034870 0.031810 0.028226 0.024407 0.020600 0.016992 0.013705 0.010810 0.008333 0.006267 0.004588 0.003259 0.002234 0.001469 0.000918 0.000538 0.000290 0.000139 0.000057 0.000018 0.000004 0.000000 0.000000 0.000000 0.000000 0.000004 0.000018 0.000057 0.000139 0.000290 0.000538 0.000918 0.001469 0.002234 0.003259 0.004588 0.006267 0.008333 0.010810 0.013705 0.016992 0.020600 0.024407 0.028226 0.031810 0.034870 0.037117 0.038309 0.038309 0.037117 0.034870 0.031810 0.028226 0.024407 0.020600 0.016992 0.013705 0.010810 0.008333 0.006267 0.004588 0.003259 0.002234 0.001469 0.000918 0.000538 0.000290 0.000139 0.000057 0.000018 0.000004 0.000000 0.000000 0.000000 0.000000 0.000004 0.000018 0.000057 0.000139 0.000290 0.000538 0.000918 0.001469 0.002234 0.003259 0.004588 0.006267 0.008333 0.010810 0.013705 0.016992 0.020600 0.024407 0.028226 0.031810 0.034870 0.037117 0.038309 0.038309 0.037117 0.034870 0.031810 0.028226 0.024407 0.020600 0.016992 0.013705 0.010810 0.008333 0.006267 0.004588 0.003259 0.002234 0.001469 0.000918 0.000538 0.000290 0.000139 0.000057 0.000018 0.000004 0.000000 0.000000 0.000000 0.000000 0.000004 0.000018 0.000057 0.000139 0.000290 0.000538 0.000918 0.001469 0.002234 0.003259 0.004588 0.006267 0.008333 0.010810 0.013705 0.016992 0.020600 0.024407 0.028226 0.031810 0.034870 0.037117 0.038309 0.038309 0.037117 0.034870 0.031810 0.028226 0.024407 0.020600 0.016992 0.013705 0.010810 0.008333 0.006267 0.004588 0.003259 0.002234 0.001469 0.000918 0.000538 0.000290 0.000139 0.000057 0.000018 0.000004 0.000000 0.000000 0.000000 0.000001 0.000006 0.000024 0.000069 0.000162 0.000329 0.000602 0.001017 0.001616 0.002446 0.003552 0.004986 0.006792 0.009009 0.011664 0.014761 0.018271 0.022120 0.026174 0.030236 0.034042 0.037290 0.039673 0.040936 0.040936 0.039673 0.037290 0.034042 0.030236 0.026174 0.022120 0.018271 0.014761 0.011664 0.009009 0.006792 0.004986 0.003552 0.002446 0.001616 0.001017 0.000602 0.000329 0.000162 0.000069 0.000024 0.000006 0.000001 0.000000 0.000000 0.000001 0.000006 0.000024 0.000069 0.000162 0.000329 0.000602 0.001017 0.001616 0.002446 0.003552 0.004986 0.006792 0.009009 0.011664 0.014761 0.018271 0.022120 0.026174 0.030236 0.034042 0.037290 0.039673 0.040936 0.040936 0.039673 0.037290 0.034042 0.030236 0.026174 0.022120 0.018271 0.014761 0.011664 0.009009 0.006792 0.004986 0.003552 0.002446 0.001616 0.001017 0.000602 0.000329 0.000162 0.000069 0.000024 0.000006 0.000001 0.000000 0.000000 0.000001 0.000006 0.000024 0.000069 0.000162 0.000329 0.000602 0.001017 0.001616 0.002446 0.003552 0.004986 0.006792 0.009009 0.011664 0.014761 0.018271 0.022120 0.026174 0.030236 0.034042 0.037290 0.039673 0.040936 0.040936 0.039673 0.037290 0.034042 0.030236 0.026174 0.022120 0.018271 0.014761 0.011664 0.009009 0.006792 0.004986 0.003552 0.002446 0.001616 0.001017 0.000602 0.000329 0.000162 0.000069 0.000024 0.000006 0.000001 0.000000 0.000000 0.000001 0.000006 0.000024 0.000069 0.000162 0.000329 0.000602 0.001017 0.001616 0.002446 0.003552 0.004986 0.006792 0.009009 0.011664 0.014761 0.018271 0.022120 0.026174 0.030236 0.034042 0.037290 0.039673 0.040936 0.040936 0.039673 0.037290 0.034042 0.030236 0.026174 0.022120 0.018271 0.014761 0.011664 0.009009 0.006792 0.004986 0.003552 0.002446 0.001616 0.001017 0.000602 0.000329 0.000162 0.000069 0.000024 0.000006 0.000001 0.000000 0.000000 0.000001 0.000006 0.000024 0.000069 0.000162 0.000329 0.000602 0.001017 0.001616 0.002446 0.003552 0.004986 0.006792 0.009009 0.011664 0.014761 0.018271 0.022120 0.026174 0.030236 0.034042 0.037290 0.039673 0.040936 0.040936 0.039673 0.037290 0.034042 0.030236 0.026174 0.022120 0.018271 0.014761 0.011664 0.009009 0.006792 0.004986 0.003552 0.002446 0.001616 0.001017 0.000602 0.000329 0.000162 0.000069 0.000024 0.000006 0.000001 0.000000 0.000000 0.000001 0.000006 0.000024 0.000069 0.000162 0.000329 0.000602 0.001017 0.001616 0.002446 0.003552 0.004986 0.006792 0.009009 0.011664 0.014761 0.018271 0.022120 0.026174 0.030236 0.034042 0.037290 0.039673 0.040936 0.040936 0.039673 0.037290 0.034042 0.030236 0.026174 0.022120 0.018271 0.014761 0.011664 0.009009 0.006792 0.004986 0.003552 0.002446 0.001616 0.001017 0.000602 0.000329 0.000162 0.000069 0.000024 0.000006 0.000001 0.000000 0.000000 0.000001 0.000006 0.000024 0.000069 0.000162 0.000329 0.000602 0.001017 0.001616 0.002446 0.003552 0.004986 0.006792 0.009009 0.011664 0.014761 0.018271 0.022120 0.026174 0.030236 0.034042 0.037290 0.039673 0.040936 0.040936 0.039673 0.037290 0.034042 0.030236 0.026174 0.022120 0.018271 0.014761 0.011664 0.009009 0.006792 0.004986 0.003552 0.002446 0.001616 0.001017 0.000602 0.000329 0.000162 0.000069 0.000024 0.000006 0.000001 0.000000 0.000000 0.000001 0.000006 0.000024 0.000069 0.000162 0.000329 0.000602 0.001017 0.001616 0.002446 0.003552 0.004986 0.006792 0.009009 0.011664 0.014761 0.018271 0.022120 0.026174 0.030236 0.034042 0.037290 0.039673 0.040936 0.040936 0.039673 0.037290 0.034042 0.030236 0.026174 0.022120 0.018271 0.014761 0.011664 0.009009 0.006792 0.004986 0.003552 0.002446 0.001616 0.001017 0.000602 0.000329 0.000162 0.000069 0.000024 0.000006 0.000001 0.000000 0.000000 0.000001 0.000006 0.000024 0.000069 0.000162 0.000329 0.000602 0.001017 0.001616 0.002446 0.003552 0.004986 0.006792 0.009009 0.011664 0.014761 0.018271 0.022120 0.026174 0.030236 0.034042 0.037290 0.039673 0.040936 0.040936 0.039673 0.037290 0.034042 0.030236 0.026174 0.022120 0.018271 0.014761 0.011664 0.009009 0.006792 0.004986 0.003552 0.002446 0.001616 0.001017 0.000602 0.000329 0.000162 0.000069 0.000024 0.000006 0.000001 0.000000 0.000000 0.000001 0.000006 0.000024 0.000069 0.000162 0.000329 0.000602 0.001017 0.001616 0.002446 0.003552 0.004986 0.006792 0.009009 0.011664 0.014761 0.018271 0.022120 0.026174 0.030236 0.034042 0.037290 0.039673 0.040936 0.040936 0.039673 0.037290 0.034042 0.030236 0.026174 0.022120 0.018271 0.014761 0.011664 0.009009 0.006792 0.004986 0.003552 0.002446 0.001616 0.001017 0.000602 0.000329 0.000162 0.000069 0.000024 0.000006 0.000001 0.000000 0.000000 0.000001 0.000006 0.000024 0.000069 0.000162 0.000329 0.000602 0.001017 0.001616 0.002446 0.003552 0.004986 0.006792 0.009009 0.011664 0.014761 0.018271 0.022120 0.026174 0.030236 0.034042 0.037290 0.039673 0.040936 0.040936 0.039673 0.037290 0.034042 0.030236 0.026174 0.022120 0.018271 0.014761 0.011664 0.009009 0.006792 0.004986 0.003552 0.002446 0.001616 0.001017 0.000602 0.000329 0.000162 0.000069 0.000024 0.000006 0.000001 0.000000 0.000000 0.000001 0.000006 0.000024 0.000069 0.000162 0.000329 0.000602 0.001017 0.001616 0.002446 0.003552 0.004986 0.006792 0.009009 0.011664 0.014761 0.018271 0.022120 0.026174 0.030236 0.034042 0.037290 0.039673 0.040936 0.040936 0.039673 0.037290 0.034042 0.030236 0.026174 0.022120 0.018271 0.014761 0.011664 0.009009 0.006792 0.004986 0.003552 0.002446 0.001616 0.001017 0.000602 0.000329 0.000162 0.000069 0.000024 0.000006 0.000001 0.000000 0.000000 0.000001 0.000006 0.000024 0.000069 0.000162 0.000329 0.000602 0.001017 0.001616 0.002446 0.003552 0.004986 0.006792 0.009009 0.011664 0.014761 0.018271 0.022120 0.026174 0.030236 0.034042 0.037290 0.039673 0.040936 0.040936 0.039673 0.037290 0.034042 0.030236 0.026174 0.022120 0.018271 0.014761 0.011664 0.009009 0.006792 0.004986 0.003552 0.002446 0.001616 0.001017 0.000602 0.000329 0.000162 0.000069 0.000024 0.000006 0.000001 0.000000 0.000000 0.000001 0.000006 0.000024 0.000069 0.000162 0.000329 0.000602 0.001017 0.001616 0.002446 0.003552 0.004986 0.006792 0.009009 0.011664 0.014761 0.018271 0.022120 0.026174 0.030236 0.034042 0.037290 0.039673 0.040936 0.040936 0.039673 0.037290 0.034042 0.030236 0.026174 0.022120 0.018271 0.014761 0.011664 0.009009 0.006792 0.004986 0.003552 0.002446 0.001616 0.001017 0.000602 0.000329 0.000162 0.000069 0.000024 0.000006 0.000001 0.000000 0.000000 0.000001 0.000006 0.000024 0.000069 0.000162 0.000329 0.000602 0.001017 0.001616 0.002446 0.003552 0.004986 0.006792 0.009009 0.011664 0.014761 0.018271 0.022120 0.026174 0.030236 0.034042 0.037290 0.039673 0.040936 0.040936 0.039673 0.037290 0.034042 0.030236 0.026174 0.022120 0.018271 0.014761 0.011664 0.009009 0.006792 0.004986 0.003552 0.002446 0.001616 0.001017 0.000602 0.000329 0.000162 0.000069 0.000024 0.000006 0.000001 0.000000 0.000000 0.000001 0.000006 0.000024 0.000069 0.000162 0.000329 0.000602 0.001017 0.001616 0.002446 0.003552 0.004986 0.006792 0.009009 0.011664 0.014761 0.018271 0.022120 0.026174 0.030236 0.034042 0.037290 0.039673 0.040936 0.040936 0.039673 0.037290 0.034042 0.030236 0.026174 0.022120 0.018271 0.014761 0.011664 0.009009 0.006792 0.004986 0.003552 0.002446 0.001616 0.001017 0.000602 0.000329 0.000162 0.000069 0.000024 0.000006 0.000001 0.000000 0.000000 0.000001 0.000006 0.000024 0.000069 0.000162 0.000329 0.000602 0.001017 