# vtk DataFile Version 3.0
vtk output
ASCII
DATASET STRUCTURED_POINTS
DIMENSIONS 50 50 50
SPACING 0.039169 0.039961 0.039427
ORIGIN -0.959670 -0.992206 -0.965954
POINT_DATA 125000
SCALARS RTData float
LOOKUP_TABLE default
-0.026055 -0.032465 -0.038529 -0.044092 -0.049011 -0.053156 -0.056419 -0.058715 -0.059992 -0.060245 -0.059532 -0.058018 -0.056022 -0.054074 -0.052932 -0.053515 -0.056705 -0.063030 -0.072384 -0.083957 -0.096476 -0.108611 -0.119320 -0.128003 -0.134462 -0.138748 -0.141011 -0.141365 -0.139810 -0.136217 -0.130353 -0.121958 -0.110855 -0.097063 -0.080876 -0.062875 -0.043860 -0.024721 -0.006295 0.010749 0.025966 0.039132 0.050216 0.059316 0.066617 0.072343 0.076727 0.079995 0.082353 0.083982 -0.032489 -0.039607 -0.046336 -0.052504 -0.057953 -0.062539 -0.066143 -0.068671 -0.070050 -0.070234 -0.069223 -0.067094 -0.064058 -0.060550 -0.057293 -0.055301 -0.055721 -0.059473 -0.066840 -0.077238 -0.089383 -0.101749 -0.113032 -0.122395 -0.129470 -0.134212 -0.136721 -0.137086 -0.135298 -0.131222 -0.124630 -0.115294 -0.103104 -0.088183 -0.070955 -0.052128 -0.032595 -0.013285 0.004983 0.021601 0.036201 0.048641 0.058955 0.067292 0.073869 0.078927 0.082708 0.085439 0.087321 0.088532 -0.038755 -0.046580 -0.053968 -0.060727 -0.066686 -0.071698 -0.075644 -0.078430 -0.079978 -0.080221 -0.079105 -0.076613 -0.072825 -0.068012 -0.062767 -0.058082 -0.055286 -0.055706 -0.060139 -0.068419 -0.079422 -0.091512 -0.103116 -0.113095 -0.120828 -0.126097 -0.128890 -0.129241 -0.127117 -0.122386 -0.114861 -0.104396 -0.091007 -0.074975 -0.056885 -0.037566 -0.017969 0.000996 0.018584 0.034290 0.047853 0.059221 0.068491 0.075855 0.081550 0.085824 0.088918 0.091051 0.092416 0.093179 -0.044664 -0.053173 -0.061185 -0.068490 -0.074908 -0.080293 -0.084537 -0.087563 -0.089305 -0.089693 -0.088641 -0.086051 -0.081857 -0.076129 -0.069233 -0.062003 -0.055802 -0.052286 -0.052822 -0.057843 -0.066608 -0.077536 -0.088852 -0.099096 -0.107321 -0.113046 -0.116077 -0.116340 -0.113764 -0.108239 -0.099663 -0.088032 -0.073550 -0.056696 -0.038209 -0.019003 -0.000012 0.017938 0.034236 0.048512 0.060620 0.070592 0.078577 0.084792 0.089479 0.092883 0.095229 0.096723 0.097543 0.097841 -0.050018 -0.059169 -0.067752 -0.075539 -0.082339 -0.088014 -0.092479 -0.095684 -0.097596 -0.098165 -0.097293 -0.094825 -0.090564 -0.084361 -0.076293 -0.066907 -0.057424 -0.049667 -0.045520 -0.046120 -0.051318 -0.059815 -0.069787 -0.079507 -0.087687 -0.093519 -0.096559 -0.096578 -0.093447 -0.087102 -0.077570 -0.065044 -0.049949 -0.032948 -0.014885 0.003333 0.020868 0.037051 0.051434 0.063791 0.074079 0.082393 0.088911 0.093854 0.097453 0.099933 0.101501 0.102339 0.102605 0.102435 -0.054622 -0.064363 -0.073457 -0.081651 -0.088750 -0.094624 -0.099216 -0.102516 -0.104538 -0.105269 -0.104629 -0.102428 -0.098366 -0.092088 -0.083352 -0.072330 -0.059944 -0.047989 -0.038723 -0.033971 -0.034303 -0.038906 -0.046104 -0.054051 -0.061185 -0.066388 -0.068944 -0.068449 -0.064713 -0.057729 -0.047681 -0.034961 -0.020176 -0.004097 0.012439 0.028634 0.043822 0.057524 0.069457 0.079514 0.087724 0.094214 0.099164 0.102776 0.105258 0.106804 0.107593 0.107779 0.107501 0.106874 -0.058291 -0.068570 -0.078117 -0.086656 -0.093982 -0.099976 -0.104610 -0.107922 -0.109979 -0.110824 -0.110408 -0.108537 -0.104832 -0.098757 -0.089765 -0.077611 -0.062810 -0.046966 -0.032542 -0.021949 -0.016484 -0.015919 -0.018892 -0.023607 -0.028385 -0.031903 -0.033252 -0.031890 -0.027588 -0.020397 -0.010619 0.001231 0.014483 0.028402 0.042277 0.055502 0.067616 0.078319 0.087458 0.095005 0.101024 0.105639 0.109009 0.111303 0.112691 0.113331 0.113369 0.112933 0.112136 0.111076 -0.060850 -0.071619 -0.081579 -0.090426 -0.097941 -0.104012 -0.108637 -0.111904 -0.113937 -0.114837 -0.114602 -0.113047 -0.109742 -0.103998 -0.094983 -0.082041 -0.065243 -0.045911 -0.026596 -0.010182 0.001388 0.007773 0.009973 0.009611 0.008332 0.007488 0.008044 0.010575 0.015303 0.022144 0.030771 0.040686 0.051312 0.062082 0.072500 0.082176 0.090842 0.098336 0.104593 0.109623 0.113490 0.116295 0.118159 0.119209 0.119573 0.119371 0.118713 0.117700 0.116425 0.114966 -0.062128 -0.073351 -0.083707 -0.092860 -0.100571 -0.106729 -0.111352 -0.114567 -0.116552 -0.117465 -0.117352 -0.116047 -0.113078 -0.107627 -0.098603 -0.084969 -0.066375 -0.043875 -0.020088 0.001691 0.018972 0.030954 0.038334 0.042559 0.045154 0.047382 0.050125 0.053892 0.058860 0.064945 0.071876 0.079289 0.086803 0.094079 0.100851 0.106933 0.112209 0.116622 0.120159 0.122846 0.124733 0.125887 0.126388 0.126319 0.125765 0.124808 0.123527 0.121999 0.120296 0.118480 -0.061951 -0.073598 -0.084355 -0.093849 -0.101817 -0.108133 -0.112824 -0.116041 -0.118005 -0.118923 -0.118878 -0.117717 -0.114929 -0.109569 -0.100312 -0.085789 -0.065314 -0.039787 -0.011994 0.014347 0.036302 0.052774 0.064312 0.072273 0.078094 0.082927 0.087536 0.092323 0.097406 0.102700 0.108012 0.113116 0.117820 0.121988 0.125548 0.128480 0.130793 0.132517 0.133684 0.134332 0.134500 0.134225 0.133550 0.132517 0.131172 0.129563 0.127745 0.125770 0.123694 0.121569 -0.060134 -0.072169 -0.083338 -0.093236 -0.101561 -0.108163 -0.113055 -0.116393 -0.118420 -0.119369 -0.119344 -0.118187 -0.115329 -0.109692 -0.099734 -0.083826 -0.061108 -0.032547 -0.001294 0.028471 0.053510 0.072664 0.086547 0.096581 0.104214 0.110555 0.116291 0.121745 0.126963 0.131821 0.136129 0.139718 0.142491 0.144436 0.145617 0.146143 0.146135 0.145707 0.144949 0.143927 0.142678 0.141225 0.139578 0.137747 0.135746 0.133595 0.131325 0.128973 0.126583 0.124198 -0.056479 -0.068833 -0.080408 -0.090767 -0.099566 -0.106613 -0.111883 -0.115510 -0.117725 -0.118756 -0.118698 -0.117351 -0.114058 -0.107589 -0.096213 -0.078171 -0.052682 -0.021118 0.012783 0.044408 0.070474 0.090074 0.104125 0.114268 0.122065 0.128664 0.134744 0.140576 0.146114 0.151121 0.155299 0.158409 0.160337 0.161110 0.160868 0.159817 0.158183 0.156174 0.153955 0.151637 0.149278 0.146893 0.144475 0.142009 0.139482 0.136893 0.134255 0.131595 0.128946 0.126347 -0.050780 -0.063327 -0.075242 -0.086068 -0.095421 -0.103052 -0.108875 -0.112965 -0.115497 -0.116650 -0.116458 -0.114630 -0.110378 -0.102312 -0.088591 -0.067550 -0.038874 -0.004717 0.030465 0.061872 0.086596 0.104319 0.116448 0.124920 0.131450 0.137266 0.143080 0.149140 0.155289 0.161097 0.166041 0.169688 0.171807 0.172395 0.171620 0.169765 0.167153 0.164096 0.160847 0.157582 0.154393 0.151304 0.148299 0.145344 0.142409 0.139475 0.136545 0.133636 0.130780 0.128012 -0.042858 -0.055374 -0.067457 -0.078644 -0.088521 -0.096776 -0.103240 -0.107890 -0.110795 -0.112020 -0.111472 -0.108709 -0.102774 -0.092162 -0.075107 -0.050420 -0.018716 0.016797 0.051140 0.079841 0.100852 0.114684 0.123271 0.128794 0.133064 0.137365 0.142469 0.148649 0.155671 0.162875 0.169399 0.174489 0.177705 0.178952 0.178407 0.176412 0.173386 0.169746 0.165847 0.161943 0.158171 0.154576 0.151141 0.147823 0.144578 0.141379 0.138219 0.135115 0.132097 0.129201 -0.032603 -0.044750 -0.056678 -0.067944 -0.078116 -0.086828 -0.093813 -0.098914 -0.102043 -0.103080 -0.101731 -0.097352 -0.088841 -0.074731 -0.053693 -0.025505 0.007932 0.042492 0.073270 0.096777 0.112155 0.120758 0.124906 0.126860 0.128385 0.130732 0.134727 0.140765 0.148680 0.157650 0.166409 0.173728 0.178824 0.181451 0.181775 0.180199 0.177237 0.173416 0.169198 0.164919 0.160777 0.156843 0.153109 0.149529 0.146054 0.142651 0.139315 0.136060 0.132920 0.129931 -0.020044 -0.031370 -0.042660 -0.053505 -0.063478 -0.072169 -0.079214 -0.084305 -0.087151 -0.087396 -0.084505 -0.077649 -0.065724 -0.047635 -0.022964 0.007177 0.039708 0.070248 0.094771 0.111203 0.119879 0.122792 0.122414 0.120883 0.119739 0.120042 0.122581 0.127939 0.136263 0.146860 0.158144 0.168261 0.175882 0.180497 0.182226 0.181535 0.179041 0.175383 0.171128 0.166705 0.162372 0.158237 0.154308 0.150545 0.146901 0.143345 0.139872 0.136504 0.133277 0.130231 -0.005410 -0.015393 -0.025437 -0.035175 -0.044193 -0.052052 -0.058304 -0.062492 -0.064123 -0.062615 -0.057246 -0.047161 -0.031561 -0.010145 0.016285 0.045416 0.073695 0.097370 0.113809 0.122344 0.124226 0.121806 0.117518 0.113220 0.110066 0.108735 0.109769 0.113826 0.121540 0.132827 0.146194 0.159186 0.169691 0.176719 0.180255 0.180812 0.179108 0.175894 0.171844 0.167470 0.163096 0.158872 0.154830 0.150945 0.147178 0.143506 0.139932 0.136484 0.133203 0.130132 0.010828 0.002700 -0.005466 -0.013334 -0.020505 -0.026522 -0.030872 -0.032991 -0.032250 -0.027954 -0.019389 -0.005975 0.012433 0.035131 0.060292 0.085104 0.106420 0.121653 0.129528 0.130431 0.126192 0.119328 0.112140 0.106139 0.102001 0.099879 0.099852 0.102379 0.108459 0.118928 0.133059 0.148208 0.161401 0.170918 0.176439 0.178450 0.177748 0.175184 0.171523 0.167354 0.163061 0.158837 0.154746 0.150785 0.146931 0.143175 0.139531 0.136035 0.132734 0.129674 0.027977 0.022102 0.016333 0.010987 0.006454 0.003198 0.001753 0.002715 0.006712 0.014347 0.026051 0.041866 0.061162 0.082467 0.103562 0.121911 0.135250 0.142108 0.142180 0.136494 0.127207 0.116922 0.107807 0.101037 0.096800 0.094692 0.094262 0.095598 0.099745 0.108287 0.121612 0.137541 0.152561 0.164144 0.171487 0.174930 0.175289 0.173476 0.170319 0.166464 0.162342 0.158187 0.154098 0.150099 0.146191 0.142383 0.138703 0.135194 0.131909 0.128895 0.045189 0.041772 0.038682 0.036225 0.034779 0.034788 0.036748 0.041178 0.048552 0.059183 0.073055 0.089634 0.107751 0.125670 0.141376 0.152975 0.159039 0.158871 0.152713 0.141904 0.128740 0.115868 0.105392 0.098256 0.094239 0.092457 0.092030 0.092718 0.095435 0.102047 0.113757 0.129162 0.144778 0.157549 0.166177 0.170764 0.172059 0.170974 0.168356 0.164872 0.160979 0.156945 0.152901 0.148902 0.144976 0.141152 0.137474 0.133993 0.130765 0.127838 0.061581 0.060594 0.060172 0.060604 0.062234 0.065447 0.070638 0.078158 0.088224 0.100794 0.115437 0.131250 0.146895 0.160781 0.171344 0.177296 0.177798 0.172595 0.162181 0.147939 0.132081 0.117186 0.105394 0.097652 0.093549 0.091885 0.091496 0.091964 0.094056 0.099551 0.109848 0.124080 0.139182 0.152068 0.161180 0.166394 0.168331 0.167836 0.165712 0.162607 0.158975 0.155102 0.151144 0.147188 0.143288 0.139495 0.135866 0.132461 0.129338 0.126540 0.076350 0.077558 0.079528 0.082519 0.086815 0.092706 0.100443 0.110173 0.121853 0.135153 0.149395 0.163565 0.176416 0.186666 0.193180 0.195116 0.192012 0.183878 0.171298 0.155492 0.138283 0.121912 0.108550 0.099471 0.094507 0.092414 0.091891 0.092417 0.094609 0.099915 0.109411 0.122334 0.136131 0.148124 0.156844 0.162061 0.164251 0.164130 0.162402 0.159647 0.156289 0.152612 0.148789 0.144930 0.141115 0.137413 0.133895 0.130624 0.127658 0.125036 0.088863 0.091882 0.095793 0.100806 0.107129 0.114943 0.124350 0.135316 0.147603 0.160717 0.173903 0.186199 0.196558 0.203994 0.207705 0.207164 0.202186 0.192994 0.180225 0.164836 0.148010 0.131233 0.116366 0.105157 0.098257 0.094922 0.093922 0.094621 0.097346 0.102982 0.111965 0.123394 0.135238 0.145497 0.153052 0.157696 0.159763 0.159796 0.158352 0.155910 0.152837 0.149398 0.145771 0.142082 0.138430 0.134899 0.131565 0.128498 0.125749 0.123354 0.098685 0.103061 0.108384 0.114811 0.122474 0.131451 0.141722 0.153125 0.165311 0.177730 0.189649 0.200228 0.208620 0.214075 0.216040 0.214231 0.208708 0.199916 0.188579 0.175446 0.161058 0.145889 0.130871 0.117676 0.107981 0.102318 0.100082 0.100550 0.103520 0.109077 0.116968 0.126224 0.135425 0.143318 0.149198 0.152898 0.154597 0.154635 0.153400 0.151249 0.148486 0.145344 0.141996 0.138576 0.135189 0.131928 0.128872 0.126087 0.123625 0.121512 0.105575 0.110837 0.117045 0.124306 0.132686 0.142183 0.152697 0.163991 0.175673 0.187200 0.197908 0.207082 0.214038 0.218211 0.219237 0.217042 0.211912 0.204504 0.195655 0.186022 0.175760 0.164570 0.152234 0.139365 0.127653 0.118939 0.114012 0.112582 0.113999 0.117638 0.122846 0.128854 0.134856 0.140158 0.144287 0.147015 0.148323 0.148345 0.147307 0.145464 0.143059 0.140297 0.137339 0.134314 0.131323 0.128456 0.125789 0.123384 0.121286 0.119519 0.109440 0.115142 0.121754 0.129339 0.137918 0.147441 0.157760 0.168612 0.179604 0.190229 0.199900 0.208012 0.214009 0.217469 0.218184 0.216252 0.212149 0.206678 0.200741 0.194935 0.189249 0.183061 0.175482 0.165950 0.154915 0.143990 0.135037 0.129009 0.125820 0.124948 0.125864 0.128085 0.131094 0.134319 0.137210 0.139341 0.140480 0.140596 0.139808 0.138319 0.136343 0.134067 0.131639 0.129166 0.126734 0.124416 0.122274 0.120363 0.118720 0.117370 0.110292 0.116030 0.122617 0.130094 0.138456 0.147629 0.157454 0.167669 0.177906 0.187708 0.196562 0.203950 0.209420 0.212661 0.213590 0.212435 0.209779 0.206469 0.203349 0.200888 0.198936 0.196735 0.193148 0.186998 0.177587 0.165341 0.152001 0.139770 0.130206 0.123908 0.120798 0.120381 0.121895 0.124444 0.127170 0.129404 0.130760 0.131144 0.130677 0.129587 0.128112 0.126442 0.124703 0.122972 0.121294 0.119710 0.118258 0.116976 0.115899 0.115048 0.108211 0.113617 0.119802 0.126800 0.134598 0.143125 0.152233 0.161687 0.171160 0.180250 0.188513 0.195508 0.200861 0.204348 0.205967 0.206011 0.205070 0.203912 0.203209 0.203226 0.203638 0.203569 0.201733 0.196601 0.186718 0.171540 0.152647 0.133722 0.118475 0.108696 0.104250 0.103991 0.106462 0.110236 0.114102 0.117214 0.119161 0.119936 0.119795 0.119098 0.118165 0.117210 0.116332 0.115552 0.114854 0.114220 0.113650 0.113160 0.112776 0.112523 0.103313 0.108050 0.113492 0.119675 0.126602 0.134221 0.142420 0.151006 0.159711 0.168197 0.176087 0.183005 0.188641 0.192818 0.195563 0.197148 0.198069 0.198908 0.200096 0.201671 0.203150 0.203531 0.201324 0.194520 0.180817 0.159089 0.132179 0.106924 0.089044 0.079832 0.077753 0.080594 0.086242 0.092827 0.098852 0.103367 0.106059 0.107158 0.107206 0.106795 0.106382 0.106218 0.106360 0.106747 0.107269 0.107824 0.108353 0.108839 0.109296 0.109754 0.095741 0.099493 0.103869 0.108921 0.114678 0.121130 0.128214 0.135804 0.143707 0.151660 0.159359 0.166490 0.172779 0.178058 0.182315 0.185712 0.188552 0.191157 0.193683 0.195943 0.197294 0.196540 0.191768 0.180113 0.158307 0.126165 0.091303 0.064571 0.050009 0.045496 0.047962 0.055016 0.064553 0.074480 0.082969 0.088913 0.092134 0.093226 0.093143 0.092795 0.092806 0.093456 0.094740 0.096485 0.098455 0.100437 0.102288 0.103945 0.105404 0.106698 0.085665 0.088132 0.091129 0.094735 0.099015 0.104015 0.109742 0.116156 0.123156 0.130576 0.138195 0.145757 0.153009 0.159745 0.165843 0.171274 0.176067 0.180223 0.183587 0.185712 0.185710 0.182008 0.171965 0.151735 0.118535 0.077633 0.043454 0.024265 0.017156 0.017538 0.023149 0.032860 0.045156 0.057737 0.068194 0.075038 0.078194 0.078707 0.078040 0.077460 0.077743 0.079171 0.081652 0.084878 0.088467 0.092070 0.095442 0.098452 0.101069 0.103326 0.073290 0.074187 0.075501 0.077344 0.079826 0.083058 0.087134 0.092116 0.098019 0.104796 0.112327 0.120423 0.128840 0.137300 0.145516 0.153199 0.160044 0.165674 0.169573 0.170956 0.168570 0.160328 0.142987 0.113124 0.072510 0.034178 0.011151 0.002082 0.000133 0.002039 0.007663 0.017454 0.030608 0.044514 0.055910 0.062721 0.064962 0.064223 0.062523 0.061444 0.061848 0.063966 0.067601 0.072314 0.077577 0.082902 0.087919 0.092415 0.096315 0.099643 0.058873 0.057936 0.057283 0.057055 0.057415 0.058543 0.060627 0.063848 0.068354 0.074239 0.081513 0.090074 0.099695 0.110020 0.120570 0.130758 0.139898 0.147203 0.151751 0.152378 0.147469 0.134689 0.111264 0.076696 0.038576 0.010900 -0.001400 -0.004731 -0.005054 -0.003788 0.000320 0.008852 0.021612 0.035659 0.046830 0.052512 0.052957 0.050405 0.047396 0.045695 0.046120 0.048796 0.053428 0.059480 0.066314 0.073311 0.079979 0.086002 0.091245 0.095707 0.042735 0.039742 0.036876 0.034307 0.032249 0.030951 0.030697 0.031786 0.034512 0.039125 0.045789 0.054529 0.065172 0.077316 0.090307 0.103259 0.115102 0.124628 0.130515 0.131279 0.125151 0.110126 0.084968 0.052354 0.021642 0.002649 -0.004421 -0.005788 -0.005840 -0.005207 -0.002161 0.005439 0.017670 0.031142 0.041006 0.044529 0.042507 0.037891 0.033585 0.031320 0.031732 0.034804 0.040173 0.047270 0.055401 0.063856 0.072029 0.079499 0.086052 0.091646 0.025278 0.020070 0.014815 0.009713 0.005021 0.001055 -0.001819 -0.003191 -0.002637 0.000253 0.005811 0.014223 0.025440 0.039086 0.054407 0.070273 0.085263 0.097785 0.106177 0.108750 0.103812 0.089997 0.067472 0.040164 0.015993 0.001302 -0.004443 -0.005720 -0.005780 -0.005064 -0.001850 0.005990 0.018128 0.030478 0.038037 0.038627 0.033868 0.027318 0.021981 0.019333 0.019733 0.023023 0.028818 0.036577 0.045612 0.055173 0.064569 0.073279 0.081003 0.087643 0.006982 -0.000512 -0.008225 -0.015929 -0.023325 -0.030045 -0.035652 -0.039658 -0.041537 -0.040758 -0.036834 -0.029398 -0.018313 -0.003813 0.013372 0.031983 0.050330 0.066510 0.078609 0.084840 0.083663 0.074175 0.057092 0.035965 0.016663 0.003758 -0.002461 -0.004540 -0.004691 -0.003207 0.001396 0.010515 0.022571 0.032914 0.037291 0.034624 0.027316 0.019243 0.013237 0.010390 0.010770 0.014108 0.020037 0.028077 0.037595 0.047844 0.058090 0.067734 0.076398 0.083917 -0.011608 -0.021347 -0.031452 -0.041662 -0.051638 -0.060964 -0.069157 -0.075685 -0.079979 -0.081453 -0.079531 -0.073693 -0.063581 -0.049180 -0.031026 -0.010348 0.011016 0.030937 0.047354 0.058491 0.062945 0.059949 0.050022 0.035664 0.020972 0.009588 0.002801 -0.000121 -0.000185 0.002637 0.009240 0.019417 0.030177 0.037321 0.038086 0.032416 0.023110 0.014016 0.007636 0.004688 0.005011 0.008263 0.014104 0.022121 0.031751 0.042285 0.052983 0.063207 0.072516 0.080688 -0.029914 -0.041736 -0.054020 -0.066462 -0.078674 -0.090200 -0.100527 -0.109120 -0.115433 -0.118917 -0.119012 -0.115140 -0.106758 -0.093533 -0.075645 -0.054102 -0.030762 -0.007916 0.012318 0.028329 0.038960 0.043458 0.041795 0.035219 0.026297 0.017923 0.012045 0.009367 0.010051 0.014324 0.021987 0.031234 0.038924 0.042280 0.039807 0.031916 0.021359 0.011707 0.005129 0.002088 0.002294 0.005365 0.010976 0.018763 0.028221 0.038699 0.049484 0.059933 0.069572 0.078136 -0.047363 -0.060998 -0.075116 -0.089357 -0.103280 -0.116382 -0.128139 -0.138044 -0.145637 -0.150500 -0.152208 -0.150261 -0.144039 -0.132911 -0.116583 -0.095648 -0.071870 -0.047725 -0.025391 -0.006132 0.009464 0.020925 0.027764 0.029968 0.028564 0.025501 0.022848 0.022132 0.024186 0.029080 0.035793 0.042284 0.046420 0.046617 0.041964 0.032916 0.021917 0.012128 0.005463 0.002299 0.002323 0.005144 0.010436 0.017856 0.026943 0.037099 0.047663 0.058017 0.067686 0.076378 -0.063445 -0.078537 -0.094053 -0.109567 -0.124573 -0.138526 -0.150896 -0.161236 -0.169213 -0.174605 -0.177222 -0.176768 -0.172696 -0.164181 -0.150428 -0.131439 -0.108772 -0.085222 -0.063215 -0.043589 -0.025957 -0.009925 0.004126 0.015222 0.022726 0.027117 0.029848 0.032544 0.036252 0.041039 0.046026 0.049907 0.051493 0.049809 0.044194 0.035043 0.024379 0.014879 0.008271 0.004982 0.004776 0.007290 0.012195 0.019148 0.027714 0.037349 0.047448 0.057444 0.066879 0.075458 -0.077744 -0.093899 -0.110346 -0.126591 -0.142064 -0.156181 -0.168422 -0.178410 -0.185966 -0.191088 -0.193860 -0.194267 -0.191963 -0.186088 -0.175420 -0.159248 -0.138788 -0.117344 -0.097953 -0.081086 -0.065135 -0.048340 -0.030197 -0.011814 0.004808 0.018162 0.028145 0.035712 0.041903 0.047163 0.051304 0.053841 0.054217 0.051836 0.046258 0.037838 0.028161 0.019387 0.013064 0.009730 0.009293 0.011461 0.015917 0.022317 0.030247 0.039209 0.048661 0.058093 0.067084 0.075348 -0.089974 -0.106800 -0.123742 -0.140241 -0.155674 -0.169433 -0.181018 -0.190134 -0.196747 -0.201065 -0.203428 -0.204106 -0.203012 -0.199401 -0.191784 -0.178717 -0.160905 -0.142361 -0.127086 -0.115182 -0.103797 -0.089905 -0.071793 -0.049679 -0.025777 -0.003275 0.015431 0.029683 0.040044 0.047341 0.052144 0.054706 0.055009 0.052832 0.047998 0.040865 0.032636 0.024978 0.019231 0.016021 0.015418 0.017238 0.021202 0.026983 0.034190 0.042372 0.051051 0.059775 0.068168 0.075961 -0.099976 -0.117122 -0.134195 -0.150588 -0.165645 -0.178750 -0.189436 -0.197487 -0.202993 -0.206325 -0.208024 -0.208586 -0.208171 -0.206229 -0.201190 -0.190973 -0.175665 -0.160162 -0.149553 -0.143185 -0.137137 -0.127896 -0.113097 -0.091679 -0.064613 -0.035234 -0.007872 0.014419 0.030810 0.041983 0.049046 0.052915 0.054122 0.052870 0.049282 0.043765 0.037247 0.030986 0.026096 0.023228 0.022589 0.024110 0.027581 0.032712 0.039148 0.046492 0.054325 0.062256 0.069953 0.077172 -0.107709 -0.124887 -0.141820 -0.157880 -0.172399 -0.184777 -0.194583 -0.201666 -0.206205 -0.208679 -0.209751 -0.210061 -0.209947 -0.209047 -0.205843 -0.197794 -0.184428 -0.171767 -0.165581 -0.163700 -0.161682 -0.156580 -0.146245 -0.128772 -0.103319 -0.071633 -0.038281 -0.008400 0.014986 0.031502 0.042252 0.048604 0.051610 0.051916 0.049961 0.046253 0.041559 0.036846 0.033022 0.030708 0.030195 0.031517 0.034544 0.039043 0.044713 0.051211 0.058181 0.065287 0.072244 0.078831 -0.113223 -0.130208 -0.146821 -0.162434 -0.176396 -0.188135 -0.197260 -0.203666 -0.207578 -0.209519 -0.210200 -0.210320 -0.210301 -0.209904 -0.207681 -0.200824 -0.188664 -0.178663 -0.176051 -0.176706 -0.176676 -0.174191 -0.167719 -0.155131 -0.134282 -0.104816 -0.069835 -0.035020 -0.005400 0.016889 0.032206 0.041946 0.047499 0.049900 0.049887 0.048103 0.045260 0.042145 0.039504 0.037906 0.037677 0.038927 0.041602 0.045538 0.050495 0.056190 0.062329 0.068628 0.074844 0.080784 -0.116630 -0.133255 -0.149433 -0.164560 -0.178026 -0.189298 -0.198023 -0.204119 -0.207815 -0.209625 -0.210236 -0.210327 -0.210317 -0.209982 -0.207878 -0.201107 -0.189643 -0.182362 -0.182112 -0.183565 -0.184074 -0.182919 -0.179094 -0.170597 -0.154769 -0.129794 -0.096848 -0.060670 -0.027105 0.000054 0.019927 0.033428 0.041974 0.046829 0.048966 0.049168 0.048153 0.046617 0.045202 0.044417 0.044600 0.045906 0.048348 0.051826 0.056162 0.061138 0.066515 0.072062 0.077574 0.082886 -0.118081 -0.134219 -0.149884 -0.164520 -0.177568 -0.188545 -0.197133 -0.203255 -0.207111 -0.209153 -0.209990 -0.210210 -0.210140 -0.209461 -0.206643 -0.199071 -0.188573 -0.184112 -0.185084 -0.186479 -0.186955 -0.186390 -0.184089 -0.178284 -0.166320 -0.145782 -0.116463 -0.081651 -0.046819 -0.016607 0.006925 0.023907 0.035464 0.042873 0.047224 0.049401 0.050151 0.050135 0.049930 0.050003 0.050684 0.052160 0.054488 0.057627 0.061460 0.065824 0.070536 0.075411 0.080282 0.085009 -0.117752 -0.133298 -0.148386 -0.162517 -0.175194 -0.185988 -0.194611 -0.200979 -0.205239 -0.207748 -0.208983 -0.209384 -0.209104 -0.207647 -0.203473 -0.195076 -0.186608 -0.184658 -0.186177 -0.187398 -0.187777 -0.187427 -0.185809 -0.181382 -0.171737 -0.154440 -0.128639 -0.096432 -0.062353 -0.031037 -0.005235 0.014422 0.028592 0.038366 0.044820 0.048870 0.051278 0.052687 0.053639 0.054569 0.055798 0.057527 0.059849 0.062768 0.066218 0.070088 0.074243 0.078541 0.082849 0.087051 -0.115833 -0.130696 -0.145139 -0.158725 -0.171020 -0.181648 -0.190347 -0.197016 -0.201738 -0.204750 -0.206367 -0.206833 -0.206094 -0.203531 -0.198022 -0.189941 -0.184313 -0.184229 -0.186097 -0.187332 -0.187711 -0.187372 -0.185847 -0.181798 -0.173147 -0.157746 -0.134631 -0.105174 -0.072939 -0.042036 -0.015374 0.005915 0.022018 0.033738 0.042023 0.047745 0.051649 0.054356 0.056380 0.058133 0.059923 0.061960 0.064361 0.067164 0.070344 0.073835 0.077541 0.081360 0.085188 0.088934 -0.112528 -0.126626 -0.140349 -0.153319 -0.165162 -0.175548 -0.184237 -0.191105 -0.196162 -0.199522 -0.201332 -0.201645 -0.200272 -0.196730 -0.190818 -0.184419 -0.181507 -0.182693 -0.184926 -0.186370 -0.186832 -0.186368 -0.184538 -0.180193 -0.171618 -0.157083 -0.135800 -0.108782 -0.078801 -0.049269 -0.022878 -0.000967 0.016293 0.029410 0.039141 0.046257 0.051444 0.055289 0.058274 0.060786 0.063123 0.065496 0.068035 0.070804 0.073812 0.077024 0.080383 0.083816 0.087246 0.090605 -0.027109 -0.033736 -0.040018 -0.045795 -0.050912 -0.055234 -0.058645 -0.061057 -0.062415 -0.062709 -0.062002 -0.060470 -0.058463 -0.056577 -0.055683 -0.056843 -0.061061 -0.068869 -0.079985 -0.093274 -0.107131 -0.120026 -0.130917 -0.139354 -0.145355 -0.149187 -0.151164 -0.151499 -0.150221 -0.147155 -0.141956 -0.134201 -0.123522 -0.109767 -0.093125 -0.074172 -0.053808 -0.033093 -0.013053 0.005481 0.021957 0.036108 0.047900 0.057465 0.065028 0.070861 0.075241 0.078429 0.080659 0.082136 -0.033798 -0.041175 -0.048163 -0.054581 -0.060257 -0.065045 -0.068820 -0.071485 -0.072964 -0.073210 -0.072218 -0.070062 -0.066969 -0.063412 -0.060215 -0.058557 -0.059771 -0.064888 -0.074090 -0.086465 -0.100318 -0.113819 -0.125588 -0.134910 -0.141646 -0.145994 -0.148247 -0.148613 -0.147117 -0.143567 -0.137605 -0.128813 -0.116874 -0.101740 -0.083753 -0.063659 -0.042495 -0.021394 -0.001377 0.016792 0.032658 0.046054 0.057031 0.065781 0.072571 0.077694 0.081435 0.084057 0.085789 0.086830 -0.040332 -0.048457 -0.056138 -0.063173 -0.069379 -0.074604 -0.078729 -0.081662 -0.083328 -0.083659 -0.082596 -0.080113 -0.076276 -0.071365 -0.066033 -0.061423 -0.059097 -0.060606 -0.066787 -0.077219 -0.090322 -0.104041 -0.116606 -0.126931 -0.134603 -0.139655 -0.142295 -0.142690 -0.140845 -0.136566 -0.129516 -0.119344 -0.105861 -0.089204 -0.069928 -0.048961 -0.027442 -0.006508 0.012904 0.030158 0.044934 0.057182 0.067034 0.074736 0.080580 0.084868 0.087881 0.089872 0.091062 0.091636 -0.046510 -0.055354 -0.063686 -0.071280 -0.077947 -0.083536 -0.087947 -0.091109 -0.092970 -0.093469 -0.092518 -0.090004 -0.085832 -0.080044 -0.073005 -0.065646 -0.059557 -0.056710 -0.058688 -0.065833 -0.076987 -0.090068 -0.102959 -0.114126 -0.122759 -0.128600 -0.131676 -0.132055 -0.129705 -0.124449 -0.116029 -0.104248 -0.089141 -0.071109 -0.050941 -0.029709 -0.008571 0.011434 0.029530 0.045261 0.058461 0.069187 0.077641 0.084099 0.088860 0.092218 0.094440 0.095760 0.096381 0.096471 -0.052126 -0.061640 -0.070557 -0.078630 -0.085660 -0.091508 -0.096099 -0.099404 -0.101413 -0.102097 -0.101370 -0.099065 -0.094948 -0.088808 -0.080661 -0.071059 -0.061386 -0.053805 -0.050579 -0.052978 -0.060593 -0.071620 -0.083773 -0.095098 -0.104308 -0.110738 -0.114120 -0.114350 -0.111333 -0.104943 -0.095077 -0.081789 -0.065421 -0.046658 -0.026476 -0.005983 0.013767 0.031933 0.047959 0.061581 0.072772 0.081673 0.088521 0.093598 0.097190 0.099565 0.100963 0.101595 0.101638 0.101243 -0.056975 -0.067101 -0.076531 -0.084994 -0.092283 -0.098272 -0.102922 -0.106257 -0.108326 -0.109154 -0.108686 -0.106736 -0.102966 -0.096941 -0.088303 -0.077128 -0.064381 -0.052142 -0.043141 -0.039563 -0.041955 -0.049106 -0.058842 -0.068952 -0.077720 -0.084031 -0.087251 -0.087046 -0.083247 -0.075810 -0.064857 -0.050746 -0.034121 -0.015873 0.002977 0.021436 0.038672 0.054097 0.067383 0.078428 0.087300 0.094181 0.099309 0.102944 0.105337 0.106719 0.107297 0.107249 0.106727 0.105859 -0.060866 -0.071544 -0.081423 -0.090202 -0.097662 -0.103695 -0.108299 -0.111554 -0.113583 -0.114480 -0.114243 -0.112695 -0.109436 -0.103841 -0.095204 -0.083090 -0.067915 -0.051445 -0.036614 -0.026368 -0.022227 -0.023753 -0.029138 -0.036162 -0.042861 -0.047781 -0.049971 -0.048885 -0.044302 -0.036284 -0.025167 -0.011551 0.003757 0.019849 0.035842 0.050988 0.064731 0.076728 0.086827 0.095028 0.101442 0.106245 0.109644 0.111854 0.113079 0.113504 0.113296 0.112600 0.111541 0.110228 -0.063619 -0.074802 -0.085086 -0.094138 -0.101726 -0.107750 -0.112245 -0.115351 -0.117262 -0.118151 -0.118079 -0.116903 -0.114186 -0.109157 -0.100795 -0.088171 -0.071110 -0.050942 -0.030624 -0.013669 -0.002451 0.002708 0.003144 0.000896 -0.002057 -0.004146 -0.004289 -0.001863 0.003344 0.011186 0.021220 0.032799 0.045182 0.057655 0.069607 0.080581 0.090277 0.098535 0.105310 0.110646 0.114645 0.117446 0.119207 0.120082 0.120221 0.119762 0.118831 0.117540 0.115989 0.114267 -0.065058 -0.076713 -0.087392 -0.096723 -0.104453 -0.110484 -0.114876 -0.117823 -0.119588 -0.120418 -0.120444 -0.119560 -0.117308 -0.112795 -0.104723 -0.091709 -0.073019 -0.049554 -0.024255 -0.001099 0.016846 0.028642 0.035226 0.038410 0.040042 0.041603 0.044096 0.048061 0.053635 0.060635 0.068660 0.077209 0.085787 0.093982 0.101491 0.108121 0.113770 0.118400 0.122024 0.124690 0.126474 0.127462 0.127751 0.127436 0.126612 0.125370 0.123797 0.121978 0.119989 0.117904 -0.065005 -0.077112 -0.088205 -0.097871 -0.105825 -0.111955 -0.116334 -0.119193 -0.120850 -0.121618 -0.121688 -0.120987 -0.119036 -0.114820 -0.106785 -0.093143 -0.072701 -0.046069 -0.016298 0.012159 0.035676 0.052922 0.064624 0.072463 0.078160 0.083042 0.087942 0.093247 0.098993 0.104986 0.110925 0.116506 0.121498 0.125770 0.129280 0.132048 0.134124 0.135569 0.136439 0.136787 0.136656 0.136088 0.135120 0.133794 0.132152 0.130243 0.128122 0.125848 0.123482 0.121083 -0.063265 -0.075801 -0.087344 -0.097438 -0.105755 -0.112153 -0.116694 -0.119619 -0.121281 -0.122039 -0.122124 -0.121478 -0.119574 -0.115261 -0.106730 -0.091852 -0.069151 -0.039228 -0.005512 0.026986 0.054253 0.074866 0.089608 0.100210 0.108373 0.115336 0.121808 0.128044 0.133978 0.139366 0.143934 0.147479 0.149927 0.151328 0.151823 0.151597 0.150841 0.149715 0.148339 0.146785 0.145084 0.143243 0.141252 0.139102 0.136793 0.134337 0.131762 0.129109 0.126426 0.123764 -0.059621 -0.072535 -0.084551 -0.095173 -0.104022 -0.110907 -0.115849 -0.119068 -0.120916 -0.121763 -0.121847 -0.121084 -0.118860 -0.113846 -0.103982 -0.086912 -0.061168 -0.027780 0.009098 0.043896 0.072537 0.093901 0.109125 0.120178 0.128866 0.136446 0.143585 0.150447 0.156830 0.162349 0.166616 0.169381 0.170591 0.170372 0.168976 0.166720 0.163924 0.160869 0.157762 0.154723 0.151792 0.148954 0.146164 0.143371 0.140538 0.137647 0.134707 0.131745 0.128802 0.125925 -0.053843 -0.067018 -0.079467 -0.090668 -0.100193 -0.107782 -0.113385 -0.117159 -0.119405 -0.120453 -0.120490 -0.119346 -0.116253 -0.109664 -0.097313 -0.076853 -0.047301 -0.010662 0.027950 0.062680 0.089927 0.109310 0.122553 0.131958 0.139490 0.146488 0.153642 0.161050 0.168329 0.174823 0.179874 0.183047 0.184209 0.183494 0.181218 0.177798 0.173683 0.169281 0.164912 0.160766 0.156911 0.153325 0.149935 0.146658 0.143425 0.140198 0.136969 0.133759 0.130607 0.127560 -0.045718 -0.058927 -0.071649 -0.083357 -0.093584 -0.101998 -0.108449 -0.112982 -0.115787 -0.117075 -0.116899 -0.114914 -0.110131 -0.100784 -0.084579 -0.059637 -0.026113 0.012565 0.050502 0.082239 0.105287 0.120311 0.12