# vtk DataFile Version 3.0
vtk output
ASCII
DATASET STRUCTURED_POINTS
DIMENSIONS 100 100 1
SPACING 0.010101 0.010101 0
ORIGIN 0.000000 0.000000 0
POINT_DATA 10000
SCALARS RTData float
LOOKUP_TABLE default
0.000000 0.000000 0.000000 0.000001 0.000004 0.000010 0.000021 0.000041 0.000072 0.000120 0.000191 0.000292 0.000430 0.000618 0.000867 0.001193 0.001613 0.002147 0.002820 0.003660 0.004700 0.005978 0.007537 0.009427 0.011705 0.014436 0.017694 0.021561 0.026130 0.031503 0.037792 0.045122 0.053625 0.063442 0.074722 0.087615 0.102275 0.118846 0.137464 0.158246 0.181279 0.206617 0.234264 0.264174 0.296236 0.330275 0.366047 0.403246 0.441509 0.480429 0.519571 0.558491 0.596754 0.633953 0.669725 0.703764 0.735826 0.765736 0.793383 0.818721 0.841754 0.862536 0.881154 0.897725 0.912385 0.925278 0.936558 0.946375 0.954878 0.962208 0.968497 0.973870 0.978439 0.982306 0.985564 0.988295 0.990573 0.992463 0.994022 0.995300 0.996340 0.997180 0.997853 0.998387 0.998807 0.999133 0.999382 0.999570 0.999708 0.999809 0.999880 0.999928 0.999959 0.999979 0.999990 0.999996 0.999999 1.000000 1.000000 1.000000 0.000000 0.000000 0.000000 0.000001 0.000004 0.000011 0.000022 0.000043 0.000075 0.000124 0.000196 0.000297 0.000438 0.000628 0.000879 0.001208 0.001630 0.002168 0.002846 0.003691 0.004737 0.006022 0.007588 0.009487 0.011775 0.014518 0.017788 0.021668 0.026252 0.031640 0.037946 0.045293 0.053814 0.063650 0.074947 0.087858 0.102533 0.119117 0.137746 0.158534 0.181569 0.206903 0.234540 0.264432 0.296470 0.330478 0.366213 0.403369 0.441584 0.480454 0.519546 0.558416 0.596631 0.633787 0.669522 0.703530 0.735568 0.765460 0.793097 0.818431 0.841466 0.862254 0.880883 0.897467 0.912142 0.925053 0.936350 0.946186 0.954707 0.962054 0.968360 0.973748 0.978332 0.982212 0.985482 0.988225 0.990513 0.992412 0.993978 0.995263 0.996309 0.997154 0.997832 0.998370 0.998792 0.999121 0.999372 0.999562 0.999703 0.999804 0.999876 0.999925 0.999957 0.999978 0.999989 0.999996 0.999999 1.000000 1.000000 1.000000 0.000000 0.000000 0.000001 0.000002 0.000006 0.000013 0.000026 0.000048 0.000082 0.000134 0.000208 0.000313 0.000458 0.000652 0.000909 0.001243 0.001673 0.002219 0.002906 0.003762 0.004820 0.006118 0.007699 0.009614 0.011921 0.014683 0.017975 0.021879 0.026487 0.031902 0.038237 0.045613 0.054163 0.064028 0.075354 0.088291 0.102990 0.119595 0.138238 0.159034 0.182069 0.207393 0.235010 0.264872 0.296867 0.330821 0.366492 0.403575 0.441711 0.480497 0.519503 0.558289 0.596425 0.633508 0.669179 0.703133 0.735128 0.764990 0.792607 0.817931 0.840966 0.861762 0.880405 0.897010 0.911709 0.924646 0.935972 0.945837 0.954387 0.961763 0.968098 0.973513 0.978121 0.982025 0.985317 0.988079 0.990386 0.992301 0.993882 0.995180 0.996238 0.997094 0.997781 0.998327 0.998757 0.999091 0.999348 0.999542 0.999687 0.999792 0.999866 0.999918 0.999952 0.999974 0.999987 0.999994 0.999998 0.999999 1.000000 1.000000 0.000001 0.000001 0.000002 0.000005 0.000010 0.000018 0.000033 0.000058 0.000095 0.000150 0.000229 0.000340 0.000490 0.000692 0.000957 0.001301 0.001742 0.002301 0.003002 0.003873 0.004949 0.006266 0.007870 0.009809 0.012142 0.014933 0.018257 0.022194 0.026839 0.032291 0.038665 0.046082 0.054673 0.064579 0.075944 0.088918 0.103649 0.120279 0.138941 0.159746 0.182779 0.208088 0.235675 0.265492 0.297426 0.331304 0.366884 0.403864 0.441888 0.480557 0.519443 0.558112 0.596136 0.633116 0.668696 0.702574 0.734508 0.764325 0.791912 0.817221 0.840254 0.861059 0.879721 0.896351 0.911082 0.924056 0.935421 0.945327 0.953918 0.961335 0.967709 0.973161 0.977806 0.981743 0.985067 0.987858 0.990191 0.992130 0.993734 0.995051 0.996127 0.996998 0.997699 0.998258 0.998699 0.999043 0.999308 0.999510 0.999660 0.999771 0.999850 0.999905 0.999942 0.999967 0.999982 0.999990 0.999995 0.999998 0.999999 0.999999 0.000003 0.000004 0.000006 0.000009 0.000016 0.000027 0.000045 0.000073 0.000114 0.000175 0.000260 0.000378 0.000537 0.000749 0.001026 0.001383 0.001839 0.002414 0.003134 0.004027 0.005126 0.006470 0.008103 0.010074 0.012442 0.015271 0.018635 0.022617 0.027308 0.032809 0.039234 0.046702 0.055346 0.065303 0.076717 0.089737 0.104508 0.121171 0.139855 0.160670 0.183699 0.208986 0.236534 0.266291 0.298146 0.331924 0.367388 0.404236 0.442117 0.480634 0.519366 0.557883 0.595764 0.632612 0.668076 0.701854 0.733709 0.763466 0.791014 0.816301 0.839330 0.860145 0.878829 0.895492 0.910263 0.923283 0.934697 0.944654 0.953298 0.960766 0.967191 0.972692 0.977383 0.981365 0.984729 0.987558 0.989926 0.991897 0.993530 0.994874 0.995973 0.996866 0.997586 0.998161 0.998617 0.998974 0.999251 0.999463 0.999622 0.999740 0.999825 0.999886 0.999927 0.999955 0.999973 0.999984 0.999991 0.999994 0.999996 0.999997 0.000008 0.000009 0.000012 0.000017 0.000026 0.000040 0.000062 0.000094 0.000142 0.000209 0.000303 0.000430 0.000601 0.000825 0.001117 0.001491 0.001965 0.002562 0.003306 0.004226 0.005355 0.006732 0.008400 0.010412 0.012823 0.015699 0.019114 0.023149 0.027897 0.033458 0.039945 0.047477 0.056183 0.066203 0.077676 0.090750 0.105569 0.122270 0.140980 0.161806 0.184826 0.210086 0.237584 0.267267 0.299024 0.332682 0.368002 0.404689 0.442394 0.480727 0.519273 0.557606 0.595311 0.631998 0.667318 0.700976 0.732733 0.762416 0.789914 0.815174 0.838194 0.859020 0.877730 0.894431 0.909250 0.922324 0.933797 0.943817 0.952523 0.960055 0.966542 0.972103 0.976851 0.980886 0.984301 0.987177 0.989588 0.991600 0.993268 0.994645 0.995774 0.996694 0.997438 0.998035 0.998509 0.998883 0.999175 0.999399 0.999570 0.999697 0.999791 0.999858 0.999906 0.999938 0.999960 0.999974 0.999983 0.999988 0.999991 0.999992 0.000017 0.000019 0.000023 0.000030 0.000042 0.000059 0.000086 0.000125 0.000179 0.000255 0.000359 0.000499 0.000683 0.000923 0.001232 0.001627 0.002124 0.002747 0.003520 0.004472 0.005637 0.007053 0.008766 0.010825 0.013287 0.016220 0.019694 0.023794 0.028609 0.034241 0.040800 0.048406 0.057187 0.067279 0.078822 0.091959 0.106832 0.123576 0.142315 0.163151 0.186161 0.211386 0.238824 0.268419 0.300060 0.333573 0.368725 0.405222 0.442721 0.480837 0.519163 0.557279 0.594778 0.631275 0.666427 0.699940 0.731581 0.761176 0.788614 0.813839 0.836849 0.857685 0.876424 0.893168 0.908041 0.921178 0.932721 0.942813 0.951594 0.959200 0.965759 0.971391 0.976206 0.980306 0.983780 0.986713 0.989175 0.991234 0.992947 0.994363 0.995528 0.996480 0.997253 0.997876 0.998373 0.998768 0.999077 0.999317 0.999501 0.999641 0.999745 0.999821 0.999875 0.999914 0.999941 0.999958 0.999970 0.999977 0.999981 0.999983 0.000032 0.000034 0.000040 0.000050 0.000065 0.000088 0.000120 0.000166 0.000229 0.000316 0.000432 0.000585 0.000786 0.001045 0.001375 0.001794 0.002319 0.002972 0.003779 0.004770 0.005977 0.007439 0.009202 0.011317 0.013840 0.016837 0.020381 0.024554 0.029448 0.035161 0.041804 0.049494 0.058360 0.068534 0.080155 0.093363 0.108297 0.125089 0.143858 0.164704 0.187700 0.212884 0.240250 0.269742 0.301248 0.334596 0.369554 0.405833 0.443095 0.480963 0.519037 0.556905 0.594167 0.630446 0.665404 0.698752 0.730258 0.759750 0.787116 0.812300 0.835296 0.856142 0.874911 0.891703 0.906637 0.919845 0.931466 0.941640 0.950506 0.958196 0.964839 0.970552 0.975446 0.979619 0.983163 0.986160 0.988683 0.990798 0.992561 0.994023 0.995230 0.996221 0.997028 0.997681 0.998206 0.998625 0.998955 0.999214 0.999415 0.999568 0.999684 0.999771 0.999834 0.999880 0.999912 0.999935 0.999950 0.999960 0.999966 0.999968 0.000055 0.000058 0.000066 0.000079 0.000099 0.000127 0.000167 0.000221 0.000295 0.000394 0.000524 0.000694 0.000913 0.001194 0.001550 0.001996 0.002553 0.003242 0.004088 0.005122 0.006377 0.007893 0.009715 0.011893 0.014484 0.017555 0.021178 0.025435 0.030416 0.036221 0.042958 0.050743 0.059704 0.069969 0.081677 0.094963 0.109964 0.126807 0.145608 0.166463 0.189441 0.214576 0.241859 0.271234 0.302587 0.335747 0.370486 0.406520 0.443516 0.481105 0.518895 0.556484 0.593480 0.629514 0.664253 0.697413 0.728766 0.758141 0.785424 0.810559 0.833537 0.854392 0.873193 0.890036 0.905037 0.918323 0.930031 0.940296 0.949257 0.957042 0.963779 0.969584 0.974565 0.978822 0.982445 0.985516 0.988107 0.990285 0.992107 0.993623 0.994878 0.995912 0.996758 0.997447 0.998004 0.998450 0.998806 0.999087 0.999306 0.999476 0.999606 0.999705 0.999779 0.999833 0.999873 0.999901 0.999921 0.999934 0.999942 0.999945 0.000088 0.000093 0.000104 0.000121 0.000146 0.000180 0.000228 0.000293 0.000379 0.000492 0.000639 0.000828 0.001069 0.001375 0.001759 0.002238 0.002831 0.003560 0.004451 0.005534 0.006844 0.008420 0.010307 0.012556 0.015225 0.018379 0.022090 0.026440 0.031519 0.037425 0.044265 0.052156 0.061220 0.071586 0.083388 0.096760 0.111832 0.128730 0.147564 0.168426 0.191380 0.216458 0.243647 0.272889 0.304071 0.337022 0.371518 0.407279 0.443981 0.481262 0.518738 0.556019 0.592721 0.628482 0.662978 0.695929 0.727111 0.756353 0.783542 0.808620 0.831574 0.852436 0.871270 0.888168 0.903240 0.916612 0.928414 0.938780 0.947844 0.955735 0.962575 0.968481 0.973560 0.977910 0.981621 0.984775 0.987444 0.989693 0.991580 0.993156 0.994466 0.995549 0.996440 0.997169 0.997762 0.998241 0.998625 0.998931 0.999172 0.999361 0.999508 0.999621 0.999707 0.999772 0.999820 0.999854 0.999879 0.999896 0.999907 0.999912 0.000134 0.000141 0.000156 0.000177 0.000208 0.000251 0.000309 0.000385 0.000485 0.000614 0.000780 0.000991 0.001258 0.001592 0.002008 0.002523 0.003156 0.003931 0.004872 0.006011 0.007382 0.009025 0.010985 0.013313 0.016067 0.019312 0.023121 0.027573 0.032759 0.038777 0.045731 0.053735 0.062912 0.073387 0.085290 0.098752 0.113900 0.130855 0.149722 0.170588 0.193514 0.218526 0.245609 0.274704 0.305696 0.338417 0.372646 0.408109 0.444489 0.481433 0.518567 0.555511 0.591891 0.627354 0.661583 0.694304 0.725296 0.754391 0.781474 0.806486 0.829412 0.850278 0.869145 0.886100 0.901248 0.914710 0.926613 0.937088 0.946265 0.954269 0.961223 0.967241 0.972427 0.976879 0.980688 0.983933 0.986687 0.989015 0.990975 0.992618 0.993989 0.995128 0.996069 0.996844 0.997477 0.997992 0.998408 0.998742 0.999009 0.999220 0.999386 0.999515 0.999615 0.999691 0.999749 0.999792 0.999823 0.999844 0.999859 0.999866 0.000196 0.000207 0.000225 0.000252 0.000291 0.000343 0.000412 0.000502 0.000617 0.000765 0.000953 0.001188 0.001483 0.001849 0.002302 0.002857 0.003536 0.004360 0.005358 0.006558 0.007997 0.009714 0.011754 0.014169 0.017016 0.020361 0.024276 0.028840 0.034143 0.040280 0.047356 0.055484 0.064781 0.075372 0.087383 0.100941 0.116168 0.133180 0.152079 0.172946 0.195837 0.220774 0.247740 0.276672 0.307457 0.339927 0.373866 0.409006 0.445038 0.481617 0.518383 0.554962 0.590994 0.626134 0.660073 0.692543 0.723328 0.752260 0.779226 0.804163 0.827054 0.847921 0.866820 0.883832 0.899059 0.912617 0.924628 0.935219 0.944516 0.952644 0.959720 0.965857 0.971160 0.975724 0.979639 0.982984 0.985831 0.988246 0.990286 0.992003 0.993442 0.994642 0.995640 0.996464 0.997143 0.997698 0.998151 0.998517 0.998812 0.999047 0.999235 0.999383 0.999498 0.999588 0.999657 0.999709 0.999748 0.999775 0.999793 0.999804 0.000278 0.000292 0.000316 0.000350 0.000397 0.000460 0.000542 0.000647 0.000781 0.000949 0.001161 0.001424 0.001751 0.002153 0.002645 0.003245 0.003974 0.004854 0.005913 0.007181 0.008694 0.010491 0.012619 0.015128 0.018078 0.021531 0.025560 0.030245 0.035673 0.041939 0.049146 0.057405 0.066830 0.077543 0.089667 0.103324 0.118633 0.135704 0.154632 0.175496 0.198345 0.223198 0.250034 0.278788 0.309347 0.341548 0.375175 0.409968 0.445625 0.481815 0.518185 0.554375 0.590032 0.624825 0.658452 0.690653 0.721212 0.749966 0.776802 0.801655 0.824504 0.845368 0.864296 0.881367 0.896676 0.910333 0.922457 0.933170 0.942595 0.950854 0.958061 0.964327 0.969755 0.974440 0.978469 0.981922 0.984872 0.987381 0.989509 0.991306 0.992819 0.994087 0.995146 0.996026 0.996755 0.997355 0.997847 0.998249 0.998576 0.998839 0.999051 0.999219 0.999353 0.999458 0.999540 0.999603 0.999650 0.999684 0.999708 0.999722 0.000384 0.000402 0.000432 0.000474 0.000531 0.000606 0.000703 0.000825 0.000979 0.001172 0.001410 0.001705 0.002066 0.002507 0.003044 0.003693 0.004477 0.005418 0.006544 0.007886 0.009479 0.011364 0.013587 0.016199 0.019257 0.022827 0.026979 0.031793 0.037354 0.043757 0.051103 0.059500 0.069060 0.079901 0.092143 0.105902 0.121293 0.138422 0.157377 0.178232 0.201032 0.225790 0.252483 0.281045 0.311362 0.343272 0.376566 0.410989 0.446250 0.482025 0.517975 0.553750 0.589011 0.623434 0.656728 0.688638 0.718955 0.747517 0.774210 0.798968 0.821768 0.842623 0.861578 0.878707 0.894098 0.907857 0.920099 0.930940 0.940500 0.948897 0.956243 0.962646 0.968207 0.973021 0.977173 0.980743 0.983801 0.986413 0.988636 0.990521 0.992114 0.993456 0.994582 0.995523 0.996307 0.996956 0.997493 0.997934 0.998295 0.998590 0.998828 0.999021 0.999175 0.999297 0.999394 0.999469 0.999526 0.999568 0.999598 0.999616 0.000516 0.000540 0.000577 0.000629 0.000698 0.000787 0.000900 0.001042 0.001219 0.001437 0.001706 0.002034 0.002434 0.002919 0.003504 0.004208 0.005051 0.006059 0.007257 0.008679 0.010359 0.012339 0.014664 0.017385 0.020561 0.024255 0.028538 0.033489 0.039192 0.045739 0.053231 0.061772 0.071473 0.082447 0.094808 0.108672 0.124146 0.141330 0.160309 0.181149 0.203891 0.228545 0.255083 0.283437 0.313494 0.345095 0.378035 0.412068 0.446909 0.482247 0.517753 0.553091 0.587932 0.621965 0.654905 0.686506 0.716563 0.744917 0.771455 0.796109 0.818851 0.839691 0.858670 0.875854 0.891328 0.905192 0.917553 0.928527 0.938228 0.946769 0.954261 0.960808 0.966511 0.971462 0.975745 0.979439 0.982615 0.985336 0.987661 0.989641 0.991321 0.992743 0.993941 0.994949 0.995792 0.996496 0.997081 0.997566 0.997966 0.998294 0.998563 0.998781 0.998958 0.999100 0.999213 0.999302 0.999371 0.999423 0.999460 0.999484 0.000681 0.000711 0.000757 0.000820 0.000902 0.001006 0.001138 0.001302 0.001505 0.001752 0.002054 0.002420 0.002862 0.003394 0.004032 0.004795 0.005704 0.006783 0.008060 0.009568 0.011342 0.013423 0.015857 0.018695 0.021995 0.025821 0.030243 0.035338 0.041189 0.047888 0.055532 0.064223 0.074069 0.085179 0.097664 0.111633 0.127189 0.144425 0.163423 0.184242 0.206917 0.231454 0.257824 0.285955 0.315736 0.347010 0.379578 0.413199 0.447600 0.482480 0.517520 0.552400 0.586801 0.620422 0.652990 0.684264 0.714045 0.742176 0.768546 0.793083 0.815758 0.836577 0.855575 0.872811 0.888367 0.902336 0.914821 0.925931 0.935777 0.944468 0.952112 0.958811 0.964662 0.969757 0.974179 0.978005 0.981305 0.984143 0.986577 0.988658 0.990432 0.991940 0.993217 0.994296 0.995205 0.995968 0.996606 0.997138 0.997580 0.997946 0.998248 0.998495 0.998698 0.998862 0.998994 0.999098 0.999180 0.999243 0.999289 0.999319 0.000881 0.000920 0.000976 0.001051 0.001148 0.001271 0.001424 0.001612 0.001843 0.002123 0.002461 0.002868 0.003356 0.003940 0.004636 0.005462 0.006441 0.007597 0.008959 0.010559 0.012433 0.014622 0.017172 0.020134 0.023566 0.027531 0.032098 0.037344 0.043351 0.050208 0.058009 0.066855 0.076849 0.088098 0.100707 0.114780 0.130416 0.147702 0.166713 0.187502 0.210101 0.234511 0.260698 0.288593 0.318082 0.349012 0.381189 0.414380 0.448321 0.482722 0.517278 0.551679 0.585620 0.618811 0.650988 0.681918 0.711407 0.739302 0.765489 0.789899 0.812498 0.833287 0.852298 0.869584 0.885220 0.899293 0.911902 0.923151 0.933145 0.941991 0.949792 0.956649 0.962656 0.967902 0.972469 0.976434 0.979866 0.982828 0.985378 0.987567 0.989441 0.991041 0.992403 0.993559 0.994538 0.995364 0.996060 0.996644 0.997132 0.997539 0.997877 0.998157 0.998388 0.998576 0.998729 0.998852 0.998949 0.999024 0.999080 0.999119 0.001123 0.001171 0.001239 0.001328 0.001442 0.001585 0.001762 0.001978 0.002239 0.002554 0.002932 0.003384 0.003923 0.004563 0.005320 0.006215 0.007270 0.008509 0.009961 0.011659 0.013639 0.015943 0.018616 0.021709 0.025280 0.029390 0.034110 0.039513 0.045681 0.052700 0.060664 0.069668 0.079814 0.091202 0.103935 0.118112 0.133824 0.151155 0.170171 0.190923 0.213436 0.237706 0.263699 0.291341 0.320522 0.351092 0.382861 0.415605 0.449068 0.482973 0.517027 0.550932 0.584395 0.617139 0.648908 0.679478 0.708659 0.736301 0.762294 0.786564 0.809077 0.829829 0.848845 0.866176 0.881888 0.896065 0.908798 0.920186 0.930332 0.939336 0.947300 0.954319 0.960487 0.965890 0.970610 0.974720 0.978291 0.981384 0.984057 0.986361 0.988341 0.990039 0.991491 0.992730 0.993785 0.994680 0.995437 0.996077 0.996616 0.997068 0.997446 0.997761 0.998022 0.998238 0.998415 0.998558 0.998672 0.998761 0.998829 0.998877 0.001411 0.001470 0.001551 0.001657 0.001790 0.001956 0.002159 0.002404 0.002700 0.003054 0.003475 0.003976 0.004569 0.005269 0.006094 0.007063 0.008198 0.009525 0.011074 0.012876 0.014969 0.017393 0.020195 0.023426 0.027141 0.031404 0.036281 0.041848 0.048182 0.055368 0.063498 0.072663 0.082961 0.094490 0.107346 0.121623 0.137408 0.154776 0.173791 0.194496 0.216912 0.241031 0.266816 0.294192 0.323051 0.353245 0.384590 0.416870 0.449840 0.483232 0.516768 0.550160 0.583130 0.615410 0.646755 0.676949 0.705808 0.733184 0.758969 0.783088 0.805504 0.826209 0.845224 0.862592 0.878377 0.892654 0.905510 0.917039 0.927337 0.936502 0.944632 0.951818 0.958152 0.963719 0.968596 0.972859 0.976574 0.979805 0.982607 0.985031 0.987124 0.988926 0.990475 0.991802 0.992937 0.993906 0.994731 0.995431 0.996024 0.996525 0.996946 0.997300 0.997596 0.997841 0.998044 0.998210 0.998343 0.998449 0.998530 0.998589 0.001750 0.001822 0.001919 0.002043 0.002198 0.002389 0.002621 0.002899 0.003232 0.003628 0.004097 0.004651 0.005302 0.006067 0.006964 0.008011 0.009232 0.010653 0.012304 0.014216 0.016427 0.018979 0.021916 0.025290 0.029156 0.033577 0.038618 0.044352 0.050856 0.058214 0.066511 0.075839 0.086290 0.097958 0.110935 0.125309 0.141160 0.158560 0.177565 0.198213 0.220521 0.244477 0.270040 0.297137 0.325659 0.355463 0.386370 0.418172 0.450633 0.483499 0.516501 0.549367 0.581828 0.613630 0.644537 0.674341 0.702863 0.729960 0.755523 0.779479 0.801787 0.822435 0.841440 0.858840 0.874691 0.889065 0.902042 0.913710 0.924161 0.933489 0.941786 0.949144 0.955648 0.961382 0.966423 0.970844 0.974710 0.978084 0.981021 0.983573 0.985784 0.987696 0.989347 0.990768 0.991989 0.993036 0.993933 0.994698 0.995349 0.995903 0.996372 0.996768 0.997101 0.997379 0.997611 0.997802 0.997957 0.998081 0.998178 0.998250 0.002146 0.002233 0.002347 0.002492 0.002672 0.002890 0.003154 0.003468 0.003842 0.004284 0.004804 0.005414 0.006129 0.006964 0.007936 0.009067 0.010380 0.011901 0.013658 0.015687 0.018022 0.020706 0.023785 0.027308 0.031330 0.035913 0.041122 0.047028 0.053706 0.061237 0.069704 0.079195 0.089799 0.101604 0.114697 0.129162 0.145074 0.162497 0.181483 0.202064 0.224252 0.248032 0.273362 0.300166 0.328338 0.357738 0.388194 0.419505 0.451446 0.483772 0.516228 0.548554 0.580495 0.611806 0.642262 0.671662 0.699834 0.726638 0.751968 0.775748 0.797936 0.818517 0.837503 0.854926 0.870838 0.885303 0.898396 0.910201 0.920805 0.930296 0.938763 0.946294 0.952972 0.958878 0.964087 0.968670 0.972692 0.976215 0.979294 0.981978 0.984313 0.986342 0.988099 0.989620 0.990933 0.992064 0.993036 0.993871 0.994586 0.995196 0.995716 0.996158 0.996532 0.996846 0.997110 0.997328 0.997508 0.997653 0.997767 0.997854 0.002604 0.002708 0.002843 0.003011 0.003217 0.003466 0.003765 0.004119 0.004537 0.005028 0.005603 0.006275 0.007057 0.007966 0.009020 0.010239 0.011649 0.013274 0.015145 0.017294 0.019760 0.022582 0.025806 0.029483 0.033667 0.038417 0.043798 0.049879 0.056733 0.064438 0.073075 0.082729 0.093482 0.105421 0.118627 0.133177 0.149142 0.166579 0.185536 0.206039 0.228096 0.251688 0.276771 0.303270 0.331079 0.360064 0.390056 0.420865 0.452274 0.484050 0.515950 0.547726 0.579135 0.609944 0.639936 0.668921 0.696730 0.723229 0.748312 0.771904 0.793961 0.814464 0.833421 0.850858 0.866823 0.881373 0.894579 0.906518 0.917271 0.926925 0.935562 0.943267 0.950121 0.956202 0.961583 0.966333 0.970517 0.974194 0.977418 0.980240 0.982706 0.984855 0.986726 0.988351 0.989761 0.990980 0.992034 0.992943 0.993725 0.994397 0.994972 0.995463 0.995881 0.996235 0.996534 0.996783 0.996989 0.997157 0.997292 0.997396 0.003131 0.003254 0.003411 0.003605 0.003841 0.004124 0.004460 0.004857 0.005323 0.005867 0.006502 0.007239 0.008093 0.009080 0.010220 0.011534 0.013045 0.014780 0.016768 0.019044 0.021645 0.024610 0.027986 0.031821 0.036170 0.041091 0.046647 0.052904 0.059936 0.067816 0.076623 0.086436 0.097337 0.109405 0.122717 0.137345 0.153354 0.170797 0.189713 0.210127 0.232040 0.255433 0.280257 0.306438 0.333874 0.362432 0.391951 0.422248 0.453115 0.484333 0.515667 0.546885 0.577752 0.608049 0.637568 0.666126 0.693562 0.719743 0.744567 0.767960 0.789873 0.810287 0.829203 0.846646 0.862655 0.877283 0.890595 0.902663 0.913564 0.923377 0.932184 0.940064 0.947096 0.953353 0.958909 0.963830 0.968179 0.972014 0.975390 0.978355 0.980956 0.983232 0.985220 0.986955 0.988466 0.989780 0.990920 0.991907 0.992761 0.993498 0.994133 0.994677 0.995143 0.995540 0.995876 0.996159 0.996395 0.996589 0.996746 0.996869 0.003730 0.003875 0.004057 0.004280 0.004549 0.004869 0.005246 0.005690 0.006207 0.006809 0.007506 0.008313 0.009243 0.010314 0.011545 0.012957 0.014574 0.016424 0.018536 0.020943 0.023683 0.026796 0.030327 0.034325 0.038842 0.043936 0.049669 0.056105 0.063314 0.071368 0.080342 0.090313 0.101356 0.113547 0.126958 0.141656 0.157700 0.175137 0.194003 0.214316 0.236074 0.259254 0.283808 0.309661 0.336713 0.364834 0.393871 0.423648 0.453967 0.484619 0.515381 0.546033 0.576352 0.606129 0.635166 0.663287 0.690339 0.716192 0.740746 0.763926 0.785684 0.805997 0.824863 0.842300 0.858344 0.873042 0.886453 0.898644 0.909687 0.919658 0.928632 0.936686 0.943895 0.950331 0.956064 0.961158 0.965675 0.969673 0.973204 0.976317 0.979057 0.981464 0.983576 0.985426 0.987043 0.988455 0.989686 0.990757 0.991687 0.992494 0.993191 0.993793 0.994310 0.994754 0.995131 0.995451 0.995720 0.995943 0.996125 0.996270 0.004409 0.004579 0.004788 0.005043 0.005347 0.005707 0.006130 0.006623 0.007196 0.007859 0.008624 0.009504 0.010515 0.011674 0.013000 0.014515 0.016244 0.018212 0.020452 0.022995 0.025879 0.029144 0.032833 0.036996 0.041684 0.046953 0.052864 0.059478 0.066864 0.075090 0.084229 0.094352 0.105532 0.117840 0.131342 0.146101 0.162169 0.179590 0.198393 0.218593 0.240184 0.263141 0.287413 0.312928 0.339586 0.367263 0.395811 0.425061 0.454827 0.484907 0.515093 0.545173 0.574939 0.604189 0.632737 0.660414 0.687072 0.712587 0.736859 0.759816 0.781407 0.801607 0.820410 0.837831 0.853899 0.868658 0.882160 0.894468 0.905648 0.915771 0.924910 0.933136 0.940522 0.947136 0.953047 0.958316 0.963004 0.967167 0.970856 0.974121 0.977005 0.979548 0.981788 0.983756 0.985485 0.987000 0.988326 0.989485 0.990496 0.991376 0.992141 0.992804 0.993377 0.993870 0.994293 0.994653 0.994957 0.995212 0.995421 0.995591 0.005173 0.005369 0.005609 0.005898 0.006241 0.006645 0.007116 0.007663 0.008295 0.009023 0.009859 0.010817 0.011913 0.013164 0.014590 0.016213 0.018057 0.020150 0.022521 0.025203 0.028235 0.031654 0.035506 0.039836 0.044696 0.050141 0.056229 0.063021 0.070581 0.078977 0.088275 0.098545 0.109856 0.122272 0.135856 0.150666 0.166748 0.184141 0.202870 0.222945 0.244358 0.267080 0.291061 0.316228 0.342484 0.369710 0.397763 0.426483 0.455691 0.485197 0.514803 0.544309 0.573517 0.602237 0.630290 0.657516 0.683772 0.708939 0.732920 0.755642 0.777055 0.797130 0.815859 0.833252 0.849334 0.864144 0.877728 0.890144 0.901455 0.911725 0.921023 0.929419 0.936979 0.943771 0.949859 0.955304 0.960164 0.964494 0.968346 0.971765 0.974797 0.977479 0.979850 0.981943 0.983787 0.985410 0.986836 0.988087 0.989183 0.990141 0.990977 0.991705 0.992337 0.992884 0.993355 0.993759 0.994102 0.994391 0.994631 0.994827 0.006025 0.006252 0.006526 0.006852 0.007238 0.007688 0.008211 0.008815 0.009510 0.010307 0.011218 0.012259 0.013444 0.014791 0.016321 0.018055 0.020019 0.022239 0.024745 0.027571 0.030752 0.034329 0.038344 0.042843 0.047877 0.053498 0.059762 0.066729 0.074461 0.083021 0.092473 0.102884 0.114316 0.126832 0.140489 0.155338 0.171422 0.188776 0.207419 0.227358 0.248581 0.271058 0.294738 0.319549 0.345397 0.372167 0.399721 0.427908 0.456556 0.485487 0.514513 0.543444 0.572092 0.600279 0.627833 0.654603 0.680451 0.705262 0.728942 0.751419 0.772642 0.792581 0.811224 0.828578 0.844662 0.859511 0.873168 0.885684 0.897116 0.907527 0.916979 0.925539 0.933271 0.940238 0.946502 0.952123 0.957157 0.961656 0.965671 0.969248 0.972429 0.975255 0.977761 0.979981 0.981945 0.983679 0.985209 0.986556 0.987741 0.988782 0.989693 0.990490 0.991185 0.991789 0.992312 0.992762 0.993148 0.993474 0.993748 0.993975 0.006972 0.007231 0.007542 0.007909 0.008340 0.008841 0.009419 0.010084 0.010846 0.011715 0.012706 0.013833 0.015111 0.016558 0.018196 0.020045 0.022132 0.024482 0.027127 0.030098 0.033432 0.037168 0.041347 0.046016 0.051222 0.057017 0.063455 0.070595 0.078493 0.087212 0.096812 0.107356 0.118901 0.131507 0.145225 0.160102 0.176177 0.193479 0.212025 0.231815 0.252838 0.275061 0.298432 0.322881 0.348315 0.374625 0.401679 0.429331 0.457420 0.485777 0.514223 0.542580 0.570669 0.598321 0.625375 0.651685 0.677119 0.701568 0.724939 0.747162 0.768185 0.787975 0.806521 0.823823 0.839898 0.854775 0.868493 0.881099 0.892644 0.903188 0.912788 0.921507 0.929405 0.936545 0.942983 0.948778 0.953984 0.958653 0.962832 0.966568 0.969902 0.972873 0.975518 0.977868 0.979955 0.981804 0.983442 0.984889 0.986167 0.987294 0.988285 0.989154 0.989916 0.990581 0.991159 0.991660 0.992091 0.992458 0.992769 0.993028 0.008016 0.008311 0.008662 0.009073 0.009553 0.010107 0.010744 0.011474 0.012306 0.013252 0.014326 0.015542 0.016916 0.018468 0.020216 0.022184 0.024397 0.026880 0.029665 0.032784 0.036272 0.040168 0.044512 0.049349 0.054726 0.060693 0.067302 0.074608 0.082668 0.091539 0.101280 0.111947 0.123596 0.136280 0.150048 0.164942 0.180996 0.198234 0.216670 0.236302 0.257114 0.279074 0.302129 0.326210 0.351227 0.377075 0.403628 0.430747 0.458280 0.486065 0.513935 0.541720 0.569253 0.596372 0.622925 0.648773 0.673790 0.697871 0.720926 0.742886 0.763698 0.783330 0.801766 0.819004 0.835058 0.849952 0.863720 0.876404 0.888053 0.898720 0.908461 0.917332 0.925392 0.932698 0.939307 0.945274 0.950651 0.955488 0.959832 0.963728 0.967216 0.970335 0.973120 0.975603 0.977816 0.979784 0.981532 0.983084 0.984458 0.985674 0.986748 0.987694 0.988526 0.989256 0.989893 0.990447 0.990927 0.991338 0.991689 0.991984 0.009161 0.009495 0.009888 0.010348 0.010879 0.011490 0.012190 0.012987 0.013893 0.014919 0.016079 0.017388 0.018862 0.020520 0.022383 0.024472 0.026813 0.029432 0.032359 0.035626 0.039268 0.043323 0.047831 0.052835 0.058380 0.064515 0.071291 0.078759 0.086973 0.095989 0.105860 0.116641 0.128383 0.141135 0.154941 0.169839 0.185859 0.203022 0.221337 0.240800 0.261393 0.283082 0.305815 0.329524 0.354123 0.379508 0.405562 0.432151 0.459132 0.486351 0.513649 0.540868 0.567849 0.594438 0.620492 0.645877 0.670476 0.694185 0.716918 0.738607 0.759200 0.778663 0.796978 0.814141 0.830161 0.845059 0.858865 0.871617 0.883359 0.894140 0.904011 0.913027 0.921241 0.928709 0.935485 0.941620 0.947165 0.952169 0.956677 0.960732 0.964374 0.967641 0.970568 0.973187 0.975528 0.977617 0.979480 0.981138 0.982612 0.983921 0.985081 0.986107 0.987013 0.987810 0.988510 0.989121 0.989652 0.990112 0.990505 0.990839 0.010408 0.010784 0.011224 0.011734 0.012320 0.012992 0.013757 0.014625 0.015608 0.016717 0.017966 0.019371 0.020948 0.022716 0.024694 0.026906 0.029377 0.032132 0.035202 0.038618 0.042414 0.046627 0.051296 0.056464 0.062174 0.068472 0.075408 0.083031 0.091392 0.100543 0.110536 0.121420 0.133243 0.146051 0.159883 0.174773 0.190748 0.207824 0.226007 0.245292 0.265658 0.287069 0.309476 0.332811 0.356991 0.381916 0.407474 0.433539 0.459973 0.486632 0.513368 0.540027 0.566461 0.592526 0.618084 0.643009 0.667189 0.690524 0.712931 0.734342 0.754708 0.773993 0.792176 0.809252 0.825227 0.840117 0.853949 0.866757 0.878580 0.889464 0.899457 0.908608 0.916969 0.924592 0.931528 0.937826 0.943536 0.948704 0.953373 0.957586 0.961382 0.964798 0.967868 0.970623 0.973094 0.975306 0.977284 0.979052 0.980629 0.982034 0.983283 0.984392 0.985375 0.986243 0.987008 0.987680 0.988266 0.988776 0.989216 0.989592 0.011758 0.012179 0.012668 0.013232 0.013877 0.014612 0.015445 0.016388 0.017450 0.018645 0.019986 0.021489 0.023171 0.025050 0.027146 0.029483 0.032084 0.034976 0.038188 0.041752 0.045700 0.050069 0.054896 0.060224 0.066093 0.072549 0.079638 0.087408 0.095907 0.105184 0.115287 0.126262 0.138155 0.151007 0.164852 0.179723 0.195640 0.212618 0.230661 0.249758 0.269890 0.291020 0.313097 0.336058 0.359820 0.384289 0.409357 0.434904 0.460800 0.486910 0.513090 0.539200 0.565096 0.590643 0.615711 0.640180 0.663942 0.686903 0.708980 0.730110 0.750242 0.769339 0.787382 0.804360 0.820277 0.835148 0.848993 0.861845 0.873738 0.884713 0.894816 0.904093 0.912592 0.920362 0.927451 0.933907 0.939776 0.945104 0.949931 0.954300 0.958248 0.961812 0.965024 0.967916 0.970517 0.972854 0.974950 0.976829 0.978511 0.980014 0.981355 0.982550 0.983612 0.984555 0.985388 0.986123 0.986768 0.987332 0.987821 0.988242 0.013210 0.013679 0.014220 0.014840 0.015546 0.016347 0.017252 0.018271 0.019416 0.020699 0.022134 0.023737 0.025525 0.027516 0.029731 0.032193 0.034925 0.037953 0.041306 0.045016 0.049113 0.053634 0.058616 0.064098 0.070120 0.076727 0.083961 0.091869 0.100496 0.109888 0.120090 0.131146 0.143096 0.155978 0.169826 0.184664 0.200513 0.217383 0.235275 0.254179 0.274071 0.294916 0.316664 0.339250 0.362598 0.386616 0.411202 0.436241 0.461611 0.487181 0.512819 0.538389 0.563759 0.588798 0.613384 0.637402 0.660750 0.683336 0.705084 0.725929 0.745821 0.764725 0.782617 0.799487 0.815336 0.830174 0.844022 0.856904 0.868854 0.879910 0.890112 0.899504 0.908131 0.916039 0.923273 0.929880 0.935902 0.941384 0.946366 0.950887 0.954984 0.958694 0.962047 0.965075 0.967807 0.970269 0.972484 0.974475 0.976263 0.977866 0.979301 0.980584 0.981729 0.982748 0.983653 0.984454 0.985160 0.985780 0.986321 0.986790 0.014760 0.015279 0.015875 0.016554 0.017324 0.018194 0.019172 0.020270 0.021499 0.022872 0.024