# vtk DataFile Version 3.0
vtk output
ASCII
DATASET STRUCTURED_POINTS
DIMENSIONS 100 100 1
SPACING 0.010101 0.010101 0
ORIGIN 0.000000 0.000000 0
POINT_DATA 10000
SCALARS RTData float
LOOKUP_TABLE default
0.000000 0.002849 0.005763 0.008743 0.011786 0.014894 0.018067 0.021303 0.024602 0.027964 0.031389 0.034876 0.038425 0.042035 0.045705 0.049436 0.053227 0.057076 0.060985 0.064951 0.068974 0.073055 0.077191 0.081382 0.085629 0.089929 0.094282 0.098688 0.103146 0.107654 0.112213 0.116821 0.121477 0.126182 0.130933 0.135730 0.140573 0.145460 0.150391 0.155364 0.160379 0.165435 0.170531 0.175667 0.180841 0.186052 0.191299 0.196583 0.201901 0.207253 0.212638 0.218055 0.223504 0.228982 0.234491 0.240028 0.245592 0.251184 0.256801 0.262444 0.268111 0.273802 0.279515 0.285251 0.291007 0.296783 0.302579 0.308393 0.314226 0.320075 0.325940 0.331821 0.337717 0.343627 0.349550 0.355486 0.361433 0.367392 0.373361 0.379339 0.385327 0.391323 0.397327 0.403339 0.409356 0.415380 0.421408 0.427442 0.433479 0.439520 0.445564 0.451610 0.457658 0.463707 0.469757 0.475807 0.481857 0.487906 0.493954 0.500000 0.002849 0.005710 0.008636 0.011627 0.014682 0.017802 0.020986 0.024234 0.027545 0.030919 0.034356 0.037855 0.041415 0.045037 0.048720 0.052463 0.056265 0.060127 0.064047 0.068025 0.072060 0.076152 0.080300 0.084504 0.088762 0.093074 0.097439 0.101856 0.106326 0.110846 0.115416 0.120036 0.124704 0.129420 0.134182 0.138991 0.143845 0.148744 0.153685 0.158670 0.163696 0.168763 0.173870 0.179017 0.184201 0.189423 0.194681 0.199975 0.205304 0.210666 0.216061 0.221488 0.226947 0.232436 0.237954 0.243500 0.249074 0.254675 0.260302 0.265954 0.271630 0.277330 0.283052 0.288796 0.294560 0.300345 0.306149 0.311971 0.317811 0.323668 0.329541 0.335430 0.341333 0.347249 0.353179 0.359121 0.365075 0.371040 0.377015 0.383000 0.388993 0.394995 0.401004 0.407021 0.413043 0.419071 0.425104 0.431142 0.437183 0.443228 0.449276 0.455325 0.461376 0.467429 0.473481 0.479534 0.485586 0.491638 0.497687 0.503735 0.005763 0.008636 0.011574 0.014576 0.017644 0.020775 0.023971 0.027231 0.030553 0.033939 0.037388 0.040899 0.044471 0.048105 0.051799 0.055554 0.059368 0.063241 0.067173 0.071163 0.075210 0.079314 0.083474 0.087689 0.091959 0.096282 0.100659 0.105088 0.109569 0.114101 0.118683 0.123314 0.127993 0.132720 0.137494 0.142314 0.147180 0.152089 0.157042 0.162037 0.167074 0.172152 0.177270 0.182427 0.187622 0.192854 0.198123 0.203427 0.208766 0.214139 0.219544 0.224981 0.230449 0.235948 0.241475 0.247031 0.252615 0.258225 0.263861 0.269522 0.275207 0.280915 0.286645 0.292397 0.298170 0.303963 0.309775 0.315605 0.321452 0.327317 0.333197 0.339092 0.345002 0.350926 0.356862 0.362811 0.368771 0.374741 0.380722 0.386713 0.392711 0.398718 0.404733 0.410754 0.416781 0.422813 0.428851 0.434892 0.440938 0.446986 0.453037 0.459090 0.465144 0.471199 0.477254 0.483309 0.489363 0.495417 0.501468 0.507517 0.008743 0.011627 0.014576 0.017591 0.020670 0.023813 0.027021 0.030292 0.033627 0.037024 0.040485 0.044007 0.047591 0.051237 0.054943 0.058710 0.062536 0.066421 0.070364 0.074366 0.078425 0.082540 0.086712 0.090938 0.095220 0.099555 0.103943 0.108384 0.112876 0.117419 0.122012 0.126654 0.131345 0.136083 0.140869 0.145700 0.150576 0.155496 0.160460 0.165466 0.170514 0.175602 0.180731 0.185898 0.191104 0.196346 0.201625 0.206939 0.212288 0.217670 0.223086 0.228532 0.234010 0.239518 0.245055 0.250620 0.256213 0.261832 0.267476 0.273146 0.278840 0.284556 0.290295 0.296055 0.301836 0.307636 0.313456 0.319293 0.325148 0.331020 0.336907 0.342809 0.348726 0.354655 0.360598 0.366553 0.372519 0.378495 0.384482 0.390477 0.396481 0.402493 0.408512 0.414538 0.420569 0.426606 0.432647 0.438693 0.444741 0.450793 0.456847 0.462903 0.468959 0.475017 0.481074 0.487132 0.493188 0.499242 0.505295 0.511346 0.011786 0.014682 0.017644 0.020670 0.023761 0.026916 0.030135 0.033418 0.036765 0.040174 0.043646 0.047180 0.050776 0.054434 0.058151 0.061930 0.065767 0.069664 0.073619 0.077633 0.081703 0.085830 0.090013 0.094251 0.098544 0.102890 0.107290 0.111742 0.116245 0.120800 0.125404 0.130057 0.134759 0.139509 0.144305 0.149147 0.154034 0.158965 0.163939 0.168956 0.174014 0.179113 0.184252 0.189430 0.194645 0.199898 0.205187 0.210511 0.215869 0.221261 0.226686 0.232142 0.237629 0.243146 0.248692 0.254267 0.259868 0.265496 0.271149 0.276827 0.282529 0.288254 0.294000 0.299768 0.305557 0.311365 0.317192 0.323036 0.328898 0.334777 0.340671 0.346579 0.352502 0.358438 0.364387 0.370348 0.376319 0.382301 0.388293 0.394293 0.400302 0.406319 0.412342 0.418372 0.424408 0.430448 0.436493 0.442542 0.448594 0.454649 0.460706 0.466764 0.472823 0.478883 0.484942 0.491001 0.497059 0.503115 0.509169 0.515220 0.014894 0.017802 0.020775 0.023813 0.026916 0.030083 0.033314 0.036609 0.039967 0.043388 0.046872 0.050418 0.054025 0.057694 0.061424 0.065214 0.069063 0.072971 0.076938 0.080963 0.085045 0.089183 0.093378 0.097627 0.101931 0.106289 0.110700 0.115163 0.119678 0.124243 0.128858 0.133523 0.138235 0.142996 0.147802 0.152655 0.157553 0.162494 0.167479 0.172506 0.177575 0.182684 0.187833 0.193021 0.198246 0.203509 0.208808 0.214141 0.219509 0.224911 0.230345 0.235810 0.241307 0.246832 0.252387 0.257970 0.263580 0.269217 0.274878 0.280564 0.286274 0.292007 0.297761 0.303537 0.309333 0.315148 0.320982 0.326834 0.332703 0.338588 0.344488 0.350403 0.356332 0.362274 0.368229 0.374195 0.380172 0.386159 0.392155 0.398161 0.404175 0.410196 0.416223 0.422257 0.428296 0.434341 0.440389 0.446441 0.452496 0.458554 0.464613 0.470674 0.476735 0.482796 0.488858 0.494918 0.500977 0.507034 0.513089 0.519141 0.018067 0.020986 0.023971 0.027021 0.030135 0.033314 0.036557 0.039863 0.043233 0.046666 0.050162 0.053719 0.057338 0.061019 0.064760 0.068561 0.072422 0.076342 0.080320 0.084356 0.088450 0.092599 0.096805 0.101066 0.105381 0.109750 0.114172 0.118646 0.123172 0.127748 0.132374 0.137049 0.141773 0.146544 0.151361 0.156224 0.161133 0.166085 0.171080 0.176117 0.181196 0.186315 0.191474 0.196672 0.201907 0.207179 0.212487 0.217831 0.223208 0.228619 0.234062 0.239536 0.245041 0.250576 0.256140 0.261731 0.267349 0.272994 0.278664 0.284358 0.290075 0.295816 0.301578 0.307361 0.313164 0.318986 0.324827 0.330686 0.336561 0.342452 0.348359 0.354280 0.360215 0.366162 0.372122 0.378094 0.384076 0.390068 0.396069 0.402079 0.408097 0.414122 0.420154 0.426192 0.432235 0.438282 0.444334 0.450389 0.456446 0.462506 0.468568 0.474631 0.480694 0.486757 0.492820 0.498881 0.504941 0.510999 0.517054 0.523107 0.021303 0.024234 0.027231 0.030292 0.033418 0.036609 0.039863 0.043182 0.046563 0.050008 0.053515 0.057084 0.060715 0.064407 0.068159 0.071972 0.075845 0.079776 0.083765 0.087813 0.091917 0.096078 0.100295 0.104567 0.108894 0.113273 0.117706 0.122191 0.126728 0.131315 0.135952 0.140638 0.145372 0.150153 0.154981 0.159855 0.164773 0.169735 0.174740 0.179788 0.184877 0.190006 0.195174 0.200382 0.205626 0.210908 0.216226 0.221578 0.226965 0.232384 0.237836 0.243320 0.248833 0.254377 0.259948 0.265548 0.271175 0.276827 0.282505 0.288207 0.293932 0.299680 0.305449 0.311239 0.317049 0.322878 0.328726 0.334591 0.340472 0.346370 0.352282 0.358209 0.364150 0.370103 0.376068 0.382044 0.388031 0.394028 0.400034 0.406048 0.412070 0.418099 0.424135 0.430176 0.436222 0.442273 0.448327 0.454385 0.460445 0.466507 0.472571 0.478635 0.484700 0.490764 0.496828 0.502891 0.508951 0.515010 0.521065 0.527118 0.024602 0.027545 0.030553 0.033627 0.036765 0.039967 0.043233 0.046563 0.049956 0.053413 0.056931 0.060512 0.064154 0.067858 0.071622 0.075446 0.079330 0.083272 0.087273 0.091332 0.095448 0.099620 0.103848 0.108131 0.112468 0.116859 0.121303 0.125798 0.130346 0.134943 0.139591 0.144287 0.149031 0.153823 0.158661 0.163545 0.168474 0.173446 0.178461 0.183518 0.188617 0.193756 0.198934 0.204150 0.209405 0.214695 0.220022 0.225384 0.230779 0.236208 0.241668 0.247160 0.252682 0.258234 0.263814 0.269422 0.275056 0.280716 0.286401 0.292111 0.297843 0.303598 0.309375 0.315172 0.320988 0.326824 0.332678 0.338549 0.344437 0.350340 0.356258 0.362191 0.368137 0.374095 0.380065 0.386046 0.392038 0.398039 0.404049 0.410067 0.416093 0.422126 0.428165 0.434209 0.440258 0.446312 0.452369 0.458428 0.464491 0.470555 0.476620 0.482686 0.488752 0.494818 0.500883 0.506946 0.513007 0.519065 0.525121 0.531173 0.027964 0.030919 0.033939 0.037024 0.040174 0.043388 0.046666 0.050008 0.053413 0.056880 0.060411 0.064003 0.067657 0.071372 0.075147 0.078983 0.082877 0.086831 0.090843 0.094913 0.099040 0.103223 0.107462 0.111756 0.116104 0.120506 0.124960 0.129466 0.134024 0.138632 0.143290 0.147997 0.152752 0.157553 0.162402 0.167295 0.172234 0.177216 0.182241 0.187308 0.192416 0.197564 0.202751 0.207977 0.213241 0.218541 0.223876 0.229247 0.234651 0.240088 0.245557 0.251057 0.256587 0.262147 0.267735 0.273351 0.278993 0.284660 0.290353 0.296070 0.301809 0.307571 0.313354 0.319158 0.324981 0.330823 0.336683 0.342560 0.348454 0.354363 0.360287 0.366224 0.372175 0.378138 0.384113 0.390099 0.396095 0.402100 0.408114 0.414136 0.420166 0.426202 0.432243 0.438291 0.444343 0.450399 0.456458 0.462520 0.468584 0.474650 0.480717 0.486784 0.492851 0.498918 0.504983 0.511046 0.517108 0.523166 0.529221 0.535273 0.031389 0.034356 0.037388 0.040485 0.043646 0.046872 0.050162 0.053515 0.056931 0.060411 0.063952 0.067556 0.071221 0.074948 0.078734 0.082581 0.086487 0.090452 0.094475 0.098556 0.102694 0.106888 0.111138 0.115442 0.119801 0.124213 0.128678 0.133195 0.137763 0.142382 0.147050 0.151767 0.156532 0.161344 0.166202 0.171105 0.176053 0.181045 0.186080 0.191156 0.196273 0.201431 0.206627 0.211862 0.217135 0.222443 0.227788 0.233167 0.238579 0.244025 0.249502 0.255010 0.260549 0.266116 0.271712 0.277335 0.282984 0.288660 0.294359 0.300083 0.305829 0.311598 0.317388 0.323198 0.329027 0.334875 0.340741 0.346624 0.352523 0.358437 0.364366 0.370309 0.376265 0.382232 0.388212 0.394202 0.400202 0.406211 0.412229 0.418254 0.424287 0.430326 0.436371 0.442421 0.448475 0.454533 0.460595 0.466659 0.472724 0.478792 0.484860 0.490928 0.496996 0.503063 0.509128 0.515192 0.521253 0.527311 0.533366 0.539417 0.034876 0.037855 0.040899 0.044007 0.047180 0.050418 0.053719 0.057084 0.060512 0.064003 0.067556 0.071171 0.074848 0.078585 0.082383 0.086241 0.090158 0.094135 0.098169 0.102260 0.106409 0.110614 0.114874 0.119189 0.123559 0.127982 0.132457 0.136984 0.141563 0.146191 0.150870 0.155596 0.160371 0.165193 0.170061 0.174974 0.179932 0.184933 0.189977 0.195062 0.200189 0.205355 0.210561 0.215805 0.221086 0.226403 0.231756 0.237143 0.242564 0.248018 0.253503 0.259019 0.264565 0.270140 0.275744 0.281374 0.287031 0.292713 0.298420 0.304150 0.309903 0.315678 0.321474 0.327290 0.333126 0.338979 0.344851 0.350739 0.356644 0.362563 0.368497 0.374444 0.380405 0.386377 0.392360 0.398354 0.404358 0.410371 0.416392 0.422421 0.428457 0.434499 0.440546 0.446598 0.452655 0.458715 0.464778 0.470844 0.476911 0.482979 0.489048 0.495117 0.501186 0.507253 0.513318 0.519382 0.525443 0.531500 0.537554 0.543604 0.038425 0.041415 0.044471 0.047591 0.050776 0.054025 0.057338 0.060715 0.064154 0.067657 0.071221 0.074848 0.078536 0.082284 0.086094 0.089963 0.093891 0.097878 0.101923 0.106025 0.110185 0.114400 0.118671 0.122997 0.127377 0.131810 0.136296 0.140833 0.145422 0.150060 0.154748 0.159485 0.164270 0.169101 0.173979 0.178901 0.183868 0.188879 0.193932 0.199027 0.204162 0.209337 0.214552 0.219804 0.225094 0.230419 0.235781 0.241176 0.246605 0.252066 0.257560 0.263083 0.268637 0.274219 0.279830 0.285467 0.291131 0.296820 0.302534 0.308270 0.314030 0.319811 0.325613 0.331435 0.337276 0.343136 0.349013 0.354906 0.360816 0.366740 0.372678 0.378630 0.384595 0.390571 0.396559 0.402557 0.408564 0.414580 0.420604 0.426636 0.432675 0.438719 0.444769 0.450823 0.456882 0.462944 0.469008 0.475075 0.481144 0.487213 0.493282 0.499352 0.505420 0.511488 0.517553 0.523616 0.529676 0.535732 0.541785 0.547834 0.042035 0.045037 0.048105 0.051237 0.054434 0.057694 0.061019 0.064407 0.067858 0.071372 0.074948 0.078585 0.082284 0.086044 0.089865 0.093745 0.097684 0.101682 0.105738 0.109851 0.114021 0.118247 0.122528 0.126864 0.131255 0.135698 0.140194 0.144741 0.149340 0.153988 0.158686 0.163433 0.168227 0.173068 0.177955 0.182887 0.187863 0.192882 0.197944 0.203048 0.208192 0.213376 0.218599 0.223860 0.229158 0.234492 0.239861 0.245264 0.250701 0.256170 0.261671 0.267202 0.272763 0.278353 0.283970 0.289615 0.295285 0.300981 0.306701 0.312444 0.318209 0.323996 0.329804 0.335632 0.341479 0.347343 0.353225 0.359124 0.365038 0.370967 0.376910 0.382866 0.388835 0.394815 0.400806 0.406808 0.412818 0.418838 0.424865 0.430899 0.436940 0.442987 0.449039 0.455095 0.461155 0.467219 0.473285 0.479352 0.485422 0.491491 0.497561 0.503631 0.509699 0.515766 0.521831 0.527893 0.533952 0.540008 0.546059 0.552106 0.045705 0.048720 0.051799 0.054943 0.058151 0.061424 0.064760 0.068159 0.071622 0.075147 0.078734 0.082383 0.086094 0.089865 0.093696 0.097587 0.101537 0.105545 0.109612 0.113736 0.117916 0.122153 0.126445 0.130791 0.135191 0.139645 0.144151 0.148708 0.153316 0.157975 0.162682 0.167438 0.172242 0.177092 0.181988 0.186929 0.191914 0.196943 0.202014 0.207126 0.212279 0.217471 0.222703 0.227972 0.233278 0.238620 0.243997 0.249408 0.254852 0.260329 0.265837 0.271375 0.276943 0.282540 0.288164 0.293815 0.299492 0.305194 0.310920 0.316669 0.322441 0.328234 0.334047 0.339880 0.345732 0.351602 0.357489 0.363392 0.369311 0.375244 0.381191 0.387151 0.393124 0.399108 0.405102 0.411107 0.417121 0.423143 0.429173 0.435210 0.441253 0.447302 0.453355 0.459413 0.465475 0.471539 0.477606 0.483675 0.489745 0.495815 0.501885 0.507954 0.514022 0.520089 0.526153 0.532214 0.538272 0.544326 0.550376 0.556420 0.049436 0.052463 0.055554 0.058710 0.061930 0.065214 0.068561 0.071972 0.075446 0.078983 0.082581 0.086241 0.089963 0.093745 0.097587 0.101489 0.105449 0.109469 0.113546 0.117680 0.121871 0.126118 0.130420 0.134777 0.139187 0.143650 0.148166 0.152733 0.157351 0.162019 0.166736 0.171501 0.176314 0.181174 0.186079 0.191029 0.196023 0.201060 0.206140 0.211260 0.216422 0.221622 0.226862 0.232139 0.237453 0.242802 0.248187 0.253606 0.259058 0.264541 0.270057 0.275602 0.281177 0.286780 0.292411 0.298069 0.303752 0.309460 0.315192 0.320947 0.326724 0.332522 0.338341 0.344179 0.350036 0.355911 0.361802 0.367710 0.373633 0.379571 0.385522 0.391486 0.397462 0.403449 0.409447 0.415454 0.421471 0.427495 0.433528 0.439567 0.445612 0.451662 0.457718 0.463777 0.469840 0.475905 0.481973 0.488042 0.494112 0.500182 0.506252 0.512321 0.518389 0.524454 0.530517 0.536577 0.542634 0.548686 0.554734 0.560776 0.053227 0.056265 0.059368 0.062536 0.065767 0.069063 0.072422 0.075845 0.079330 0.082877 0.086487 0.090158 0.093891 0.097684 0.101537 0.105449 0.109421 0.113451 0.117538 0.121683 0.125884 0.130141 0.134454 0.138820 0.143241 0.147714 0.152239 0.156816 0.161443 0.166121 0.170847 0.175622 0.180443 0.185312 0.190226 0.195185 0.200187 0.205233 0.210321 0.215450 0.220620 0.225828 0.231076 0.236361 0.241682 0.247040 0.252432 0.257858 0.263317 0.268808 0.274330 0.279882 0.285463 0.291073 0.296710 0.302374 0.308063 0.313777 0.319515 0.325275 0.331058 0.336862 0.342685 0.348529 0.354390 0.360269 0.366165 0.372077 0.378004 0.383946 0.389901 0.395868 0.401847 0.407838 0.413838 0.419849 0.425868 0.431895 0.437929 0.443970 0.450017 0.456069 0.462126 0.468186 0.474250 0.480316 0.486384 0.492453 0.498523 0.504593 0.510663 0.516731 0.522798 0.528862 0.534924 0.540982 0.547037 0.553087 0.559133 0.565173 0.057076 0.060127 0.063241 0.066421 0.069664 0.072971 0.076342 0.079776 0.083272 0.086831 0.090452 0.094135 0.097878 0.101682 0.105545 0.109469 0.113451 0.117491 0.121589 0.125744 0.129956 0.134223 0.138545 0.142921 0.147352 0.151834 0.156369 0.160956 0.165593 0.170279 0.175015 0.179798 0.184629 0.189506 0.194429 0.199396 0.204408 0.209462 0.214558 0.219695 0.224872 0.230089 0.235344 0.240637 0.245966 0.251331 0.256730 0.262163 0.267629 0.273127 0.278655 0.284214 0.289802 0.295418 0.301061 0.306731 0.312426 0.318146 0.323889 0.329655 0.335442 0.341251 0.347080 0.352928 0.358794 0.364677 0.370578 0.376493 0.382424 0.388369 0.394327 0.400298 0.406281 0.412274 0.418277 0.424290 0.430311 0.436340 0.442377 0.448419 0.454468 0.460521 0.466579 0.472640 0.478704 0.484771 0.490839 0.496908 0.502978 0.509047 0.515116 0.521184 0.527249 0.533312 0.539372 0.545429 0.551482 0.557530 0.563573 0.569610 0.060985 0.064047 0.067173 0.070364 0.073619 0.076938 0.080320 0.083765 0.087273 0.090843 0.094475 0.098169 0.101923 0.105738 0.109612 0.113546 0.117538 0.121589 0.125698 0.129863 0.134084 0.138361 0.142693 0.147080 0.151519 0.156012 0.160556 0.165152 0.169798 0.174494 0.179238 0.184031 0.188870 0.193756 0.198687 0.203663 0.208683 0.213745 0.218849 0.223994 0.229179 0.234404 0.239667 0.244966 0.250303 0.255675 0.261081 0.266521 0.271994 0.277498 0.283033 0.288598 0.294192 0.299815 0.305464 0.311139 0.316840 0.322565 0.328313 0.334084 0.339877 0.345690 0.351523 0.357376 0.363246 0.369134 0.375038 0.380958 0.386892 0.392840 0.398802 0.404775 0.410761 0.416757 0.422762 0.428777 0.434801 0.440832 0.446869 0.452914 0.458963 0.465017 0.471076 0.477138 0.483202 0.489269 0.495337 0.501406 0.507475 0.513544 0.519612 0.525678 0.531742 0.537804 0.543862 0.549917 0.555967 0.562013 0.568053 0.574087 0.064951 0.068025 0.071163 0.074366 0.077633 0.080963 0.084356 0.087813 0.091332 0.094913 0.098556 0.102260 0.106025 0.109851 0.113736 0.117680 0.121683 0.125744 0.129863 0.134038 0.138270 0.142557 0.146898 0.151294 0.155743 0.160245 0.164799 0.169404 0.174059 0.178764 0.183517 0.188318 0.193166 0.198061 0.203000 0.207984 0.213012 0.218082 0.223194 0.228347 0.233540 0.238772 0.244042 0.249349 0.254693 0.260071 0.265485 0.270931 0.276410 0.281921 0.287463 0.293034 0.298634 0.304262 0.309917 0.315597 0.321303 0.327034 0.332787 0.338563 0.344360 0.350178 0.356016 0.361872 0.367747 0.373638 0.379546 0.385469 0.391407 0.397359 0.403323 0.409299 0.415287 0.421285 0.427293 0.433310 0.439335 0.445368 0.451407 0.457452 0.463503 0.469558 0.475617 0.481679 0.487744 0.493810 0.499878 0.505947 0.512015 0.518083 0.524149 0.530214 0.536277 0.542336 0.548393 0.554445 0.560492 0.566535 0.572572 0.578604 0.068974 0.072060 0.075210 0.078425 0.081703 0.085045 0.088450 0.091917 0.095448 0.099040 0.102694 0.106409 0.110185 0.114021 0.117916 0.121871 0.125884 0.129956 0.134084 0.138270 0.142511 0.146808 0.151159 0.155564 0.160023 0.164534 0.169097 0.173711 0.178375 0.183088 0.187850 0.192660 0.197517 0.202419 0.207367 0.212359 0.217395 0.222473 0.227593 0.232753 0.237954 0.243193 0.248470 0.253784 0.259134 0.264520 0.269940 0.275393 0.280878 0.286395 0.291943 0.297520 0.303126 0.308759 0.314419 0.320106 0.325817 0.331552 0.337310 0.343091 0.348892 0.354715 0.360557 0.366417 0.372295 0.378190 0.384102 0.390028 0.395969 0.401923 0.407890 0.413869 0.419859 0.425859 0.431869 0.437888 0.443915 0.449948 0.455989 0.462035 0.468086 0.474142 0.480201 0.486263 0.492328 0.498394 0.504461 0.510529 0.516596 0.522663 0.528728 0.534791 0.540852 0.546909 0.552963 0.559012 0.565057 0.571097 0.577131 0.583159 0.073055 0.076152 0.079314 0.082540 0.085830 0.089183 0.092599 0.096078 0.099620 0.103223 0.106888 0.110614 0.114400 0.118247 0.122153 0.126118 0.130141 0.134223 0.138361 0.142557 0.146808 0.151114 0.155475 0.159890 0.164358 0.168878 0.173450 0.178073 0.182745 0.187467 0.192238 0.197056 0.201921 0.206832 0.211788 0.216788 0.221831 0.226917 0.232044 0.237212 0.242419 0.247665 0.252950 0.258271 0.263628 0.269020 0.274446 0.279905 0.285397 0.290920 0.296473 0.302056 0.307667 0.313306 0.318972 0.324663 0.330379 0.336119 0.341882 0.347666 0.353472 0.359299 0.365145 0.371009 0.376890 0.382789 0.388703 0.394633 0.400576 0.406533 0.412503 0.418484 0.424476 0.430478 0.436490 0.442510 0.448538 0.454573 0.460614 0.466661 0.472713 0.478768 0.484828 0.490890 0.496954 0.503019 0.509086 0.515152 0.521218 0.527284 0.533347 0.539408 0.545467 0.551522 0.557573 0.563619 0.569661 0.575698 0.581728 0.587752 0.077191 0.080300 0.083474 0.086712 0.090013 0.093378 0.096805 0.100295 0.103848 0.107462 0.111138 0.114874 0.118671 0.122528 0.126445 0.130420 0.134454 0.138545 0.142693 0.146898 0.151159 0.155475 0.159845 0.164269 0.168746 0.173276 0.177856 0.182488 0.187169 0.191900 0.196679 0.201505 0.206378 0.211297 0.216261 0.221268 0.226319 0.231412 0.236547 0.241722 0.246936 0.252190 0.257480 0.262808 0.268172 0.273570 0.279002 0.284468 0.289965 0.295494 0.301053 0.306641 0.312258 0.317902 0.323572 0.329268 0.334989 0.340733 0.346501 0.352290 0.358100 0.363930 0.369779 0.375647 0.381532 0.387434 0.393351 0.399283 0.405229 0.411189 0.417161 0.423144 0.429138 0.435142 0.441155 0.447176 0.453205 0.459241 0.465282 0.471330 0.477381 0.483437 0.489496 0.495558 0.501621 0.507686 0.513751 0.519817 0.525881 0.531944 0.538006 0.544065 0.550121 0.556173 0.562221 0.568265 0.574303 0.580336 0.586363 0.592383 0.081382 0.084504 0.087689 0.090938 0.094251 0.097627 0.101066 0.104567 0.108131 0.111756 0.115442 0.119189 0.122997 0.126864 0.130791 0.134777 0.138820 0.142921 0.147080 0.151294 0.155564 0.159890 0.164269 0.168702 0.173188 0.177727 0.182316 0.186956 0.191646 0.196385 0.201172 0.206007 0.210887 0.215814 0.220785 0.225801 0.230859 0.235959 0.241101 0.246283 0.251504 0.256764 0.262062 0.267396 0.272766 0.278170 0.283609 0.289080 0.294583 0.300117 0.305682 0.311275 0.316897 0.322546 0.328221 0.333922 0.339647 0.345395 0.351167 0.356960 0.362774 0.368607 0.374460 0.380331 0.386219 0.392124 0.398044 0.403979 0.409927 0.415889 0.421862 0.427847 0.433843 0.439848 0.445862 0.451885 0.457914 0.463951 0.469993 0.476040 0.482092 0.488147 0.494206 0.500267 0.506329 0.512393 0.518457 0.524521 0.530583 0.536645 0.542704 0.548760 0.554814 0.560863 0.566908 0.572948 0.578983 0.585012 0.591035 0.597050 0.085629 0.088762 0.091959 0.095220 0.098544 0.101931 0.105381 0.108894 0.112468 0.116104 0.119801 0.123559 0.127377 0.131255 0.135191 0.139187 0.143241 0.147352 0.151519 0.155743 0.160023 0.164358 0.168746 0.173188 0.177683 0.182230 0.186828 0.191477 0.196175 0.200922 0.205717 0.210560 0.215448 0.220383 0.225361 0.230384 0.235450 0.240557 0.245706 0.250894 0.256123 0.261389 0.266693 0.272033 0.277409 0.282819 0.288264 0.293740 0.299249 0.304789 0.310358 0.315957 0.321583 0.327237 0.332917 0.338622 0.344351 0.350104 0.355879 0.361676 0.367493 0.373330 0.379186 0.385060 0.390951 0.396859 0.402781 0.408718 0.414669 0.420632 0.426608 0.432594 0.438591 0.444597 0.450613 0.456636 0.462666 0.468702 0.474745 0.480792 0.486844 0.492899 0.498956 0.505016 0.511078 0.517140 0.523202 0.529264 0.535325 0.541384 0.547440 0.553494 0.559545 0.565591 0.571632 0.577669 0.583700 0.589725 0.595743 0.601754 0.089929 0.093074 0.096282 0.099555 0.102890 0.106289 0.109750 0.113273 0.116859 0.120506 0.124213 0.127982 0.131810 0.135698 0.139645 0.143650 0.147714 0.151834 0.156012 0.160245 0.164534 0.168878 0.173276 0.177727 0.182230 0.186786 0.191392 0.196049 0.200755 0.205511 0.210314 0.215164 0.220060 0.225002 0.229988 0.235018 0.240090 0.245205 0.250360 0.255555 0.260790 0.266063 0.271373 0.276719 0.282101 0.287517 0.292967 0.298449 0.303963 0.309508 0.315082 0.320686 0.326317 0.331975 0.337659 0.343368 0.349102 0.354858 0.360637 0.366437 0.372258 0.378098 0.383957 0.389834 0.395728 0.401637 0.407562 0.413501 0.419454 0.425419 0.431396 0.437384 0.443382 0.449389 0.455405 0.461428 0.467459 0.473495 0.479538 0.485585 0.491636 0.497690 0.503747 0.509805 0.515865 0.521926 0.527986 0.534046 0.540105 0.546161 0.552215 0.558266 0.564313 0.570356 0.576394 0.582426 0.588453 0.594474 0.600487 0.606494 0.094282 0.097439 0.100659 0.103943 0.107290 0.110700 0.114172 0.117706 0.121303 0.124960 0.128678 0.132457 0.136296 0.140194 0.144151 0.148166 0.152239 0.156369 0.160556 0.164799 0.169097 0.173450 0.177856 0.182316 0.186828 0.191392 0.196007 0.200672 0.205387 0.210150 0.214960 0.219818 0.224722 0.229671 0.234664 0.239701 0.244780 0.249902 0.255063 0.260265 0.265506 0.270785 0.276101 0.281453 0.286841 0.292262 0.297717 0.303205 0.308724 0.314274 0.319853 0.325461 0.331096 0.336759 0.342447 0.348160 0.353897 0.359658 0.365440 0.371243 0.377067 0.382911 0.388772 0.394652 0.400548 0.406459 0.412386 0.418327 0.424281 0.430248 0.436226 0.442215 0.448214 0.454222 0.460238 0.466262 0.472292 0.478329 0.484371 0.490417 0.496467 0.502520 0.508576 0.514633 0.520692 0.526750 0.532809 0.538866 0.544922 0.550976 0.557027 0.563074 0.569118 0.575157 0.581191 0.587220 0.593242 0.599258 0.605267 0.611268 0.098688 0.101856 0.105088 0.108384 0.111742 0.115163 0.118646 0.122191 0.125798 0.129466 0.133195 0.136984 0.140833 0.144741 0.148708 0.152733 0.156816 0.160956 0.165152 0.169404 0.173711 0.178073 0.182488 0.186956 0.191477 0.196049 0.200672 0.205345 0.210067 0.214838 0.219657 0.224522 0.229433 0.234389 0.239389 0.244433 0.249519 0.254647 0.259815 0.265023 0.270270 0.275555 0.280877 0.286234 0.291627 0.297054 0.302515 0.308007 0.313531 0.319086 0.324669 0.330282 0.335921 0.341588 0.347280 0.352997 0.358738 0.364501 0.370287 0.376093 0.381920 0.387766 0.393630 0.399512 0.405410 0.411324 0.417253 0.423195 0.429151 0.435118 0.441098 0.447087 0.453087 0.459095 0.465112 0.471135 0.477166 0.483202 0.489243 0.495289 0.501338 0.507390 0.513444 0.519500 0.525556 0.531613 0.537669 0.543723 0.549776 0.555827 0.561875 0.567919 0.573959 0.579994 0.586024 0.592048 0.598066 0.604077 0.610081 0.616077 0.103146 0.106326 0.109569 0.112876 0.116245 0.119678 0.123172 0.126728 0.130346 0.134024 0.137763 0.141563 0.145422 0.149340 0.153316 0.157351 0.161443 0.165593 0.169798 0.174059 0.178375 0.182745 0.187169 0.191646 0.196175 0.200755 0.205387 0.210067 0.214797 0.219576 0.224402 0.229274 0.234192 0.239155 0.244162 0.249213 0.254305 0.259439 0.264614 0.269828 0.275081 0.280372 0.285699 0.291062 0.296460 0.301893 0.307358 0.312855 0.318384 0.323943 0.329531 0.335147 0.340791 0.346462 0.352157 0.357878 0.363622 0.369389 0.375177 0.380987 0.386816 0.392664 0.398531 0.404415 0.410315 0.416230 0.422160 0.428104 0.434061 0.440030 0.446010 0.452000 0.458000 0.464008 0.470025 0.476048 0.482078 0.488114 0.494154 0.500199 0.506247 0.512297 0.518350 0.524403 0.530458 0.536512 0.542565 0.548617 0.554667 0.560715 0.566759 0.572799 0.578835 0.584866 0.590892 0.596911 0.602924 0.608930 0.614929 0.620919 0.107654 0.110846 0.114101 0.117419 0.120800 0.124243 0.127748 0.131315 0.134943 0.138632 0.142382 0.146191 0.150060 0.153988 0.157975 0.162019 0.166121 0.170279 0.174494 0.178764 0.183088 0.187467 0.191900 0.196385 0.200922 0.205511 0.210150 0.214838 0.219576 0.224362 0.229195 0.234074 0.238999 0.243969 0.248983 0.254040 0.259139 0.264279 0.269460 0.274680 0.279938 0.285234 0.290567 0.295936 0.301339 0.306776 0.312246 0.317748 0.323281 0.328844 0.334437 0.340057 0.345705 0.351379 0.357078 0.362802 0.368549 0.374319 0.380110 0.385922 0.391754 0.397604 0.403473 0.409359 0.415260 0.421178 0.427109 0.433054 0.439012 0.444981 0.450962 0.456952 0.462952 0.468961 0.474977 0.481000 0.487029 0.493064 0.499103 0.505147 0.511193 0.517242 0.523292 0.529344 0.535396 0.541447 0.547498 0.553547 0.559594 0.565637 0.571678 0.577714 0.583746 0.589773 0.595794 0.601808 0.607816 0.613817 0.619810 0.625794 0.112213 0.115416 0.118683 0.122012 0.125404 0.128858 0.132374 0.135952 0.139591 0.143290 0.147050 0.150870 0.154748 0.158686 0.162682 0.166736 0.170847 0.175015 0.179238 0.183517 0.187850 0.192238 0.196679 0.201172 0.205717 0.210314 0.214960 0.219657 0.224402 0.229195 0.234035 0.238921 0.243853 0.248830 0.253850 0.258913 0.264018 0.269165 0.274351 0.279577 0.284841 0.290142 0.295480 0.300854 0.306262 0.311704 0.317179 0.322685 0.328222 0.333790 0.339386 0.345010 0.350661 0.356339 0.362041 0.367768 0.373518 0.379291 0.385084 0.390899 0.396733 0.402586 0.408456 0.414343 0.420247 0.426165 0.432098 0.438044 0.444002 0.449972 0.455953 0.461944 0.467943 0.473952 0.479967 0.485990 0.492018 0.498052 0.504090 0.510131 0.516176 0.522223 0.528271 0.534320 0.540369 0.546418 0.552466 0.558511 0.564555 0.570595 0.576631 0.582664 0.588691 0.594713 0.600729 0.606738 0.612741 0.618736 0.624723 0.630702 0.116821 0.120036 0.123314 0.126654 0.130057 0.133523 0.137049 0.140638 0.144287 0.147997 0.151767 0.155596 0.159485 0.163433 0.167438 0.171501 0.175622 0.179798 0.184031 0.188318 0.192660 0.197056 0.201505 0.206007 0.210560 0.215164 0.219818 0.224522 0.229274 0.234074 0.238921 0.243814 0.248753 0.253736 0.258763 0.263832 0.268943 0.274095 0.279287 0.284519 0.289788 0.295095 0.300438 0.305816 0.311229 0.316676 0.322155 0.327665 0.333207 0.338778 0.344378 0.350005 0.355660 0.361341 0.367046 0.372776 0.378529 0.384304 0.390100 0.395917 0.401753 0.407607 0.413479 0.419368 0.425272 0.431192 0.437125 0.443072 0.449031 0.455001 0.460982 0.466973 0.472972 0.478980 0.484995 0.491017 0.497044 0.503076 0.509112 0.515152 0.521195 0.527240 0.533285 0.539332 0.545378 0.551424 0.557468 0.563510 0.569550 0.575586 0.581618 0.587646 0.593669 0.599686 0.605697 0.611701 0.617698 0.623687 0.629668 0.635641 0.121477 0.124704 0.127993 0.131345 0.134759 0.138235 0.141773 0.145372 0.149031 0.152752 0.156532 0.160371 0.164270 0.168227 0.172242 0.176314 0.180443 0.184629 0.188870 0.193166 0.197517 0.201921 0.206378 0.210887 0.215448 0.220060 0.224722 0.229433 0.234192 0.238999 0.243853 0.248753 0.253698 0.258687 0.263720 0.268795 0.273912 0.279070 0.284268 0.289504 0.294779 0.300091 0.305439 0.310822 0.316239 0.321690 0.327173 0.332688 0.338233 0.343808 0.349411 0.355042 0.360700 0.366384 0.372092 0.377825 0.383580 0.389357 0.395156 0.400974 0.406812 0.412668 0.418541 0.424431 0.430337 0.436257 0.442191 0.448138 0.454098 0.460068 0.466049 0.472039 0.478038 0.484045 0.490059 0.496080 0.502106 0.508136 0.514171 0.520209 0.526249 0.532291 0.538334 0.544378 0.550421 0.556464 0.562504 0.568543 0.574578 0.580610 0.586638 0.592661 0.598679 0.604691 0.610697 0.616695 0.622686 0.628670 0.634644 0.640610 0.126182 0.129420 0.132720 0.136083 0.139509 0.142996 0.146544 0.150153 0.153823 0.157553 0.161