# vtk DataFile Version 3.0
vtk output
ASCII
DATASET STRUCTURED_POINTS
DIMENSIONS 100 100 1
SPACING 0.010101 0.010101 0
ORIGIN 0.000000 0.000000 0
POINT_DATA 10000
SCALARS RTData float
LOOKUP_TABLE default
0.000000 0.000000 0.000000 0.000001 0.000003 0.000008 0.000017 0.000032 0.000055 0.000088 0.000134 0.000196 0.000278 0.000384 0.000516 0.000681 0.000881 0.001123 0.001411 0.001750 0.002146 0.002604 0.003131 0.003730 0.004409 0.005173 0.006025 0.006972 0.008016 0.009161 0.010408 0.011758 0.013210 0.014760 0.016402 0.018128 0.019925 0.021778 0.023669 0.025573 0.027465 0.029312 0.031083 0.032741 0.034251 0.035575 0.036682 0.037540 0.038127 0.038424 0.038424 0.038127 0.037540 0.036682 0.035575 0.034251 0.032741 0.031083 0.029312 0.027465 0.025573 0.023669 0.021778 0.019925 0.018128 0.016402 0.014760 0.013210 0.011758 0.010408 0.009161 0.008016 0.006972 0.006025 0.005173 0.004409 0.003730 0.003131 0.002604 0.002146 0.001750 0.001411 0.001123 0.000881 0.000681 0.000516 0.000384 0.000278 0.000196 0.000134 0.000088 0.000055 0.000032 0.000017 0.000008 0.000003 0.000001 0.000000 0.000000 0.000000 0.000000 0.000000 0.000000 0.000001 0.000004 0.000009 0.000019 0.000034 0.000058 0.000093 0.000141 0.000207 0.000292 0.000402 0.000540 0.000711 0.000920 0.001171 0.001470 0.001822 0.002233 0.002708 0.003254 0.003875 0.004579 0.005369 0.006252 0.007231 0.008311 0.009495 0.010784 0.012179 0.013679 0.015279 0.016975 0.018756 0.020610 0.022522 0.024472 0.026435 0.028384 0.030288 0.032112 0.033820 0.035375 0.036739 0.037878 0.038761 0.039365 0.039671 0.039671 0.039365 0.038761 0.037878 0.036739 0.035375 0.033820 0.032112 0.030288 0.028384 0.026435 0.024472 0.022522 0.020610 0.018756 0.016975 0.015279 0.013679 0.012179 0.010784 0.009495 0.008311 0.007231 0.006252 0.005369 0.004579 0.003875 0.003254 0.002708 0.002233 0.001822 0.001470 0.001171 0.000920 0.000711 0.000540 0.000402 0.000292 0.000207 0.000141 0.000093 0.000058 0.000034 0.000019 0.000009 0.000004 0.000001 0.000000 0.000000 0.000000 0.000000 0.000000 0.000001 0.000002 0.000006 0.000012 0.000023 0.000040 0.000066 0.000104 0.000156 0.000225 0.000316 0.000432 0.000577 0.000757 0.000976 0.001239 0.001551 0.001919 0.002347 0.002843 0.003411 0.004057 0.004788 0.005609 0.006526 0.007542 0.008662 0.009888 0.011224 0.012668 0.014220 0.015875 0.017628 0.019468 0.021383 0.023357 0.025369 0.027394 0.029404 0.031367 0.033247 0.035006 0.036607 0.038011 0.039183 0.040093 0.040714 0.041029 0.041029 0.040714 0.040093 0.039183 0.038011 0.036607 0.035006 0.033247 0.031367 0.029404 0.027394 0.025369 0.023357 0.021383 0.019468 0.017628 0.015875 0.014220 0.012668 0.011224 0.009888 0.008662 0.007542 0.006526 0.005609 0.004788 0.004057 0.003411 0.002843 0.002347 0.001919 0.001551 0.001239 0.000976 0.000757 0.000577 0.000432 0.000316 0.000225 0.000156 0.000104 0.000066 0.000040 0.000023 0.000012 0.000006 0.000002 0.000001 0.000000 0.000000 0.000001 0.000001 0.000002 0.000005 0.000009 0.000017 0.000030 0.000050 0.000079 0.000121 0.000177 0.000252 0.000350 0.000474 0.000629 0.000820 0.001051 0.001328 0.001657 0.002043 0.002492 0.003011 0.003605 0.004280 0.005043 0.005898 0.006852 0.007909 0.009073 0.010348 0.011734 0.013232 0.014840 0.016554 0.018368 0.020272 0.022252 0.024292 0.026369 0.028459 0.030533 0.032556 0.034493 0.036306 0.037954 0.039400 0.040606 0.041542 0.042181 0.042505 0.042505 0.042181 0.041542 0.040606 0.039400 0.037954 0.036306 0.034493 0.032556 0.030533 0.028459 0.026369 0.024292 0.022252 0.020272 0.018368 0.016554 0.014840 0.013232 0.011734 0.010348 0.009073 0.007909 0.006852 0.005898 0.005043 0.004280 0.003605 0.003011 0.002492 0.002043 0.001657 0.001328 0.001051 0.000820 0.000629 0.000474 0.000350 0.000252 0.000177 0.000121 0.000079 0.000050 0.000030 0.000017 0.000009 0.000005 0.000002 0.000001 0.000001 0.000004 0.000004 0.000006 0.000010 0.000016 0.000026 0.000042 0.000065 0.000099 0.000146 0.000208 0.000291 0.000397 0.000531 0.000698 0.000902 0.001148 0.001442 0.001790 0.002198 0.002672 0.003217 0.003841 0.004549 0.005347 0.006241 0.007238 0.008340 0.009553 0.010879 0.012320 0.013877 0.015546 0.017324 0.019204 0.021176 0.023225 0.025333 0.027480 0.029638 0.031778 0.033865 0.035862 0.037729 0.039426 0.040914 0.042156 0.043118 0.043776 0.044109 0.044109 0.043776 0.043118 0.042156 0.040914 0.039426 0.037729 0.035862 0.033865 0.031778 0.029638 0.027480 0.025333 0.023225 0.021176 0.019204 0.017324 0.015546 0.013877 0.012320 0.010879 0.009553 0.008340 0.007238 0.006241 0.005347 0.004549 0.003841 0.003217 0.002672 0.002198 0.001790 0.001442 0.001148 0.000902 0.000698 0.000531 0.000397 0.000291 0.000208 0.000146 0.000099 0.000065 0.000042 0.000026 0.000016 0.000010 0.000006 0.000004 0.000004 0.000010 0.000011 0.000013 0.000018 0.000027 0.000040 0.000059 0.000088 0.000127 0.000180 0.000251 0.000343 0.000460 0.000606 0.000787 0.001006 0.001271 0.001585 0.001956 0.002389 0.002890 0.003466 0.004124 0.004869 0.005707 0.006645 0.007688 0.008841 0.010107 0.011490 0.012992 0.014612 0.016347 0.018194 0.020144 0.022188 0.024310 0.026492 0.028711 0.030941 0.033150 0.035302 0.037361 0.039284 0.041032 0.042563 0.043840 0.044830 0.045506 0.045849 0.045849 0.045506 0.044830 0.043840 0.042563 0.041032 0.039284 0.037361 0.035302 0.033150 0.030941 0.028711 0.026492 0.024310 0.022188 0.020144 0.018194 0.016347 0.014612 0.012992 0.011490 0.010107 0.008841 0.007688 0.006645 0.005707 0.004869 0.004124 0.003466 0.002890 0.002389 0.001956 0.001585 0.001271 0.001006 0.000787 0.000606 0.000460 0.000343 0.000251 0.000180 0.000127 0.000088 0.000059 0.000040 0.000027 0.000018 0.000013 0.000011 0.000010 0.000021 0.000022 0.000026 0.000033 0.000045 0.000062 0.000086 0.000120 0.000167 0.000228 0.000309 0.000412 0.000542 0.000703 0.000900 0.001138 0.001424 0.001762 0.002159 0.002621 0.003154 0.003765 0.004460 0.005246 0.006130 0.007116 0.008211 0.009419 0.010744 0.012190 0.013757 0.015445 0.017252 0.019172 0.021198 0.023319 0.025518 0.027777 0.030073 0.032377 0.034658 0.036879 0.039001 0.040982 0.042781 0.044357 0.045671 0.046688 0.047383 0.047735 0.047735 0.047383 0.046688 0.045671 0.044357 0.042781 0.040982 0.039001 0.036879 0.034658 0.032377 0.030073 0.027777 0.025518 0.023319 0.021198 0.019172 0.017252 0.015445 0.013757 0.012190 0.010744 0.009419 0.008211 0.007116 0.006130 0.005246 0.004460 0.003765 0.003154 0.002621 0.002159 0.001762 0.001424 0.001138 0.000900 0.000703 0.000542 0.000412 0.000309 0.000228 0.000167 0.000120 0.000086 0.000062 0.000045 0.000033 0.000026 0.000022 0.000021 0.000041 0.000043 0.000048 0.000058 0.000073 0.000094 0.000125 0.000166 0.000221 0.000293 0.000385 0.000502 0.000647 0.000825 0.001042 0.001302 0.001612 0.001978 0.002404 0.002899 0.003468 0.004119 0.004857 0.005690 0.006623 0.007663 0.008815 0.010084 0.011474 0.012987 0.014625 0.016388 0.018271 0.020270 0.022377 0.024578 0.026860 0.029200 0.031576 0.033958 0.036314 0.038605 0.040793 0.042834 0.044686 0.046306 0.047657 0.048703 0.049416 0.049778 0.049778 0.049416 0.048703 0.047657 0.046306 0.044686 0.042834 0.040793 0.038605 0.036314 0.033958 0.031576 0.029200 0.026860 0.024578 0.022377 0.020270 0.018271 0.016388 0.014625 0.012987 0.011474 0.010084 0.008815 0.007663 0.006623 0.005690 0.004857 0.004119 0.003468 0.002899 0.002404 0.001978 0.001612 0.001302 0.001042 0.000825 0.000647 0.000502 0.000385 0.000293 0.000221 0.000166 0.000125 0.000094 0.000073 0.000058 0.000048 0.000043 0.000041 0.000072 0.000075 0.000082 0.000095 0.000114 0.000142 0.000179 0.000229 0.000295 0.000379 0.000485 0.000617 0.000781 0.000979 0.001219 0.001505 0.001843 0.002239 0.002700 0.003232 0.003842 0.004537 0.005323 0.006207 0.007196 0.008295 0.009510 0.010846 0.012306 0.013893 0.015608 0.017450 0.019416 0.021499 0.023691 0.025979 0.028347 0.030773 0.033233 0.035696 0.038129 0.040493 0.042748 0.044851 0.046756 0.048423 0.049811 0.050886 0.051618 0.051990 0.051990 0.051618 0.050886 0.049811 0.048423 0.046756 0.044851 0.042748 0.040493 0.038129 0.035696 0.033233 0.030773 0.028347 0.025979 0.023691 0.021499 0.019416 0.017450 0.015608 0.013893 0.012306 0.010846 0.009510 0.008295 0.007196 0.006207 0.005323 0.004537 0.003842 0.003232 0.002700 0.002239 0.001843 0.001505 0.001219 0.000979 0.000781 0.000617 0.000485 0.000379 0.000295 0.000229 0.000179 0.000142 0.000114 0.000095 0.000082 0.000075 0.000072 0.000120 0.000124 0.000134 0.000150 0.000175 0.000209 0.000255 0.000316 0.000394 0.000492 0.000614 0.000765 0.000949 0.001172 0.001437 0.001752 0.002123 0.002554 0.003054 0.003628 0.004284 0.005028 0.005867 0.006809 0.007859 0.009023 0.010307 0.011715 0.013252 0.014919 0.016717 0.018645 0.020699 0.022872 0.025155 0.027534 0.029993 0.032509 0.035056 0.037604 0.040117 0.042556 0.044881 0.047045 0.049006 0.050720 0.052146 0.053249 0.054001 0.054382 0.054382 0.054001 0.053249 0.052146 0.050720 0.049006 0.047045 0.044881 0.042556 0.040117 0.037604 0.035056 0.032509 0.029993 0.027534 0.025155 0.022872 0.020699 0.018645 0.016717 0.014919 0.013252 0.011715 0.010307 0.009023 0.007859 0.006809 0.005867 0.005028 0.004284 0.003628 0.003054 0.002554 0.002123 0.001752 0.001437 0.001172 0.000949 0.000765 0.000614 0.000492 0.000394 0.000316 0.000255 0.000209 0.000175 0.000150 0.000134 0.000124 0.000120 0.000191 0.000196 0.000208 0.000229 0.000260 0.000303 0.000359 0.000432 0.000524 0.000639 0.000780 0.000953 0.001161 0.001410 0.001706 0.002054 0.002461 0.002932 0.003475 0.004097 0.004804 0.005603 0.006502 0.007506 0.008624 0.009859 0.011218 0.012706 0.014326 0.016079 0.017966 0.019986 0.022134 0.024403 0.026782 0.029258 0.031812 0.034422 0.037060 0.039695 0.042291 0.044808 0.047203 0.049432 0.051448 0.053209 0.054673 0.055806 0.056577 0.056968 0.056968 0.056577 0.055806 0.054673 0.053209 0.051448 0.049432 0.047203 0.044808 0.042291 0.039695 0.037060 0.034422 0.031812 0.029258 0.026782 0.024403 0.022134 0.019986 0.017966 0.016079 0.014326 0.012706 0.011218 0.009859 0.008624 0.007506 0.006502 0.005603 0.004804 0.004097 0.003475 0.002932 0.002461 0.002054 0.001706 0.001410 0.001161 0.000953 0.000780 0.000639 0.000524 0.000432 0.000359 0.000303 0.000260 0.000229 0.000208 0.000196 0.000191 0.000292 0.000297 0.000313 0.000340 0.000378 0.000430 0.000499 0.000585 0.000694 0.000828 0.000991 0.001188 0.001424 0.001705 0.002034 0.002420 0.002868 0.003384 0.003976 0.004651 0.005414 0.006275 0.007239 0.008313 0.009504 0.010817 0.012259 0.013833 0.015542 0.017388 0.019371 0.021489 0.023737 0.026107 0.028588 0.031166 0.033820 0.036528 0.039261 0.041986 0.044668 0.047264 0.049731 0.052024 0.054097 0.055906 0.057409 0.058570 0.059361 0.059762 0.059762 0.059361 0.058570 0.057409 0.055906 0.054097 0.052024 0.049731 0.047264 0.044668 0.041986 0.039261 0.036528 0.033820 0.031166 0.028588 0.026107 0.023737 0.021489 0.019371 0.017388 0.015542 0.013833 0.012259 0.010817 0.009504 0.008313 0.007239 0.006275 0.005414 0.004651 0.003976 0.003384 0.002868 0.002420 0.002034 0.001705 0.001424 0.001188 0.000991 0.000828 0.000694 0.000585 0.000499 0.000430 0.000378 0.000340 0.000313 0.000297 0.000292 0.000430 0.000438 0.000458 0.000490 0.000537 0.000601 0.000683 0.000786 0.000913 0.001069 0.001258 0.001483 0.001751 0.002066 0.002434 0.002862 0.003356 0.003923 0.004569 0.005302 0.006129 0.007057 0.008093 0.009243 0.010515 0.011913 0.013444 0.015111 0.016916 0.018862 0.020948 0.023171 0.025525 0.028002 0.030591 0.033274 0.036033 0.038843 0.041674 0.044493 0.047262 0.049939 0.052480 0.054839 0.056969 0.058826 0.060367 0.061558 0.062369 0.062779 0.062779 0.062369 0.061558 0.060367 0.058826 0.056969 0.054839 0.052480 0.049939 0.047262 0.044493 0.041674 0.038843 0.036033 0.033274 0.030591 0.028002 0.025525 0.023171 0.020948 0.018862 0.016916 0.015111 0.013444 0.011913 0.010515 0.009243 0.008093 0.007057 0.006129 0.005302 0.004569 0.003923 0.003356 0.002862 0.002434 0.002066 0.001751 0.001483 0.001258 0.001069 0.000913 0.000786 0.000683 0.000601 0.000537 0.000490 0.000458 0.000438 0.000430 0.000618 0.000628 0.000652 0.000692 0.000749 0.000825 0.000923 0.001045 0.001194 0.001375 0.001592 0.001849 0.002153 0.002507 0.002919 0.003394 0.003940 0.004563 0.005269 0.006067 0.006964 0.007966 0.009080 0.010314 0.011674 0.013164 0.014791 0.016558 0.018468 0.020520 0.022716 0.025050 0.027516 0.030107 0.032807 0.035602 0.038470 0.041385 0.044318 0.047233 0.050091 0.052851 0.055467 0.057892 0.060080 0.061984 0.063565 0.064784 0.065614 0.066035 0.066035 0.065614 0.064784 0.063565 0.061984 0.060080 0.057892 0.055467 0.052851 0.050091 0.047233 0.044318 0.041385 0.038470 0.035602 0.032807 0.030107 0.027516 0.025050 0.022716 0.020520 0.018468 0.016558 0.014791 0.013164 0.011674 0.010314 0.009080 0.007966 0.006964 0.006067 0.005269 0.004563 0.003940 0.003394 0.002919 0.002507 0.002153 0.001849 0.001592 0.001375 0.001194 0.001045 0.000923 0.000825 0.000749 0.000692 0.000652 0.000628 0.000618 0.000867 0.000879 0.000909 0.000957 0.001026 0.001117 0.001232 0.001375 0.001550 0.001759 0.002008 0.002302 0.002645 0.003044 0.003504 0.004032 0.004636 0.005320 0.006094 0.006964 0.007936 0.009020 0.010220 0.011545 0.013000 0.014590 0.016321 0.018196 0.020216 0.022383 0.024694 0.027146 0.029731 0.032440 0.035259 0.038170 0.041151 0.044175 0.047211 0.050225 0.053175 0.056018 0.058710 0.061202 0.063447 0.065399 0.067018 0.068267 0.069116 0.069546 0.069546 0.069116 0.068267 0.067018 0.065399 0.063447 0.061202 0.058710 0.056018 0.053175 0.050225 0.047211 0.044175 0.041151 0.038170 0.035259 0.032440 0.029731 0.027146 0.024694 0.022383 0.020216 0.018196 0.016321 0.014590 0.013000 0.011545 0.010220 0.009020 0.007936 0.006964 0.006094 0.005320 0.004636 0.004032 0.003504 0.003044 0.002645 0.002302 0.002008 0.001759 0.001550 0.001375 0.001232 0.001117 0.001026 0.000957 0.000909 0.000879 0.000867 0.001193 0.001208 0.001243 0.001301 0.001383 0.001491 0.001627 0.001794 0.001996 0.002238 0.002523 0.002857 0.003245 0.003693 0.004208 0.004795 0.005462 0.006215 0.007063 0.008011 0.009067 0.010239 0.011534 0.012957 0.014515 0.016213 0.018055 0.020045 0.022184 0.024472 0.026906 0.029483 0.032193 0.035026 0.037968 0.040999 0.044096 0.047233 0.050376 0.053489 0.056532 0.059460 0.062228 0.064786 0.067089 0.069089 0.070746 0.072023 0.072891 0.073330 0.073330 0.072891 0.072023 0.070746 0.069089 0.067089 0.064786 0.062228 0.059460 0.056532 0.053489 0.050376 0.047233 0.044096 0.040999 0.037968 0.035026 0.032193 0.029483 0.026906 0.024472 0.022184 0.020045 0.018055 0.016213 0.014515 0.012957 0.011534 0.010239 0.009067 0.008011 0.007063 0.006215 0.005462 0.004795 0.004208 0.003693 0.003245 0.002857 0.002523 0.002238 0.001996 0.001794 0.001627 0.001491 0.001383 0.001301 0.001243 0.001208 0.001193 0.001613 0.001630 0.001673 0.001742 0.001839 0.001965 0.002124 0.002319 0.002553 0.002831 0.003156 0.003536 0.003974 0.004477 0.005051 0.005704 0.006441 0.007270 0.008198 0.009232 0.010380 0.011649 0.013045 0.014574 0.016244 0.018057 0.020019 0.022132 0.024397 0.026813 0.029377 0.032084 0.034925 0.037887 0.040956 0.044112 0.047329 0.050581 0.053833 0.057048 0.060184 0.063198 0.066041 0.068666 0.071025 0.073073 0.074767 0.076072 0.076958 0.077407 0.077407 0.076958 0.076072 0.074767 0.073073 0.071025 0.068666 0.066041 0.063198 0.060184 0.057048 0.053833 0.050581 0.047329 0.044112 0.040956 0.037887 0.034925 0.032084 0.029377 0.026813 0.024397 0.022132 0.020019 0.018057 0.016244 0.014574 0.013045 0.011649 0.010380 0.009232 0.008198 0.007270 0.006441 0.005704 0.005051 0.004477 0.003974 0.003536 0.003156 0.002831 0.002553 0.002319 0.002124 0.001965 0.001839 0.001742 0.001673 0.001630 0.001613 0.002147 0.002168 0.002219 0.002301 0.002414 0.002562 0.002747 0.002972 0.003242 0.003560 0.003931 0.004360 0.004854 0.005418 0.006059 0.006783 0.007597 0.008509 0.009525 0.010653 0.011901 0.013274 0.014780 0.016424 0.018212 0.020150 0.022239 0.024482 0.026880 0.029432 0.032132 0.034976 0.037953 0.041050 0.044251 0.047534 0.050875 0.054244 0.057606 0.060924 0.064154 0.067253 0.070172 0.072862 0.075277 0.077371 0.079102 0.080434 0.081338 0.081796 0.081796 0.081338 0.080434 0.079102 0.077371 0.075277 0.072862 0.070172 0.067253 0.064154 0.060924 0.057606 0.054244 0.050875 0.047534 0.044251 0.041050 0.037953 0.034976 0.032132 0.029432 0.026880 0.024482 0.022239 0.020150 0.018212 0.016424 0.014780 0.013274 0.011901 0.010653 0.009525 0.008509 0.007597 0.006783 0.006059 0.005418 0.004854 0.004360 0.003931 0.003560 0.003242 0.002972 0.002747 0.002562 0.002414 0.002301 0.002219 0.002168 0.002147 0.002820 0.002846 0.002906 0.003002 0.003134 0.003306 0.003520 0.003779 0.004088 0.004451 0.004872 0.005358 0.005913 0.006544 0.007257 0.008060 0.008959 0.009961 0.011074 0.012304 0.013658 0.015145 0.016768 0.018536 0.020452 0.022521 0.024745 0.027127 0.029665 0.032359 0.035202 0.038188 0.041306 0.044542 0.047879 0.051293 0.054759 0.058247 0.061720 0.065141 0.068465 0.071648 0.074641 0.077397 0.079866 0.082005 0.083771 0.085129 0.086051 0.086517 0.086517 0.086051 0.085129 0.083771 0.082005 0.079866 0.077397 0.074641 0.071648 0.068465 0.065141 0.061720 0.058247 0.054759 0.051293 0.047879 0.044542 0.041306 0.038188 0.035202 0.032359 0.029665 0.027127 0.024745 0.022521 0.020452 0.018536 0.016768 0.015145 0.013658 0.012304 0.011074 0.009961 0.008959 0.008060 0.007257 0.006544 0.005913 0.005358 0.004872 0.004451 0.004088 0.003779 0.003520 0.003306 0.003134 0.003002 0.002906 0.002846 0.002820 0.003660 0.003691 0.003762 0.003873 0.004027 0.004226 0.004472 0.004770 0.005122 0.005534 0.006011 0.006558 0.007181 0.007886 0.008679 0.009568 0.010559 0.011659 0.012876 0.014216 0.015687 0.017294 0.019044 0.020943 0.022995 0.025203 0.027571 0.030098 0.032784 0.035626 0.038618 0.041752 0.045016 0.048394 0.051869 0.055417 0.059010 0.062617 0.066202 0.069725 0.073143 0.076408 0.079475 0.082293 0.084815 0.086997 0.088797 0.090180 0.091118 0.091592 0.091592 0.091118 0.090180 0.088797 0.086997 0.084815 0.082293 0.079475 0.076408 0.073143 0.069725 0.066202 0.062617 0.059010 0.055417 0.051869 0.048394 0.045016 0.041752 0.038618 0.035626 0.032784 0.030098 0.027571 0.025203 0.022995 0.020943 0.019044 0.017294 0.015687 0.014216 0.012876 0.011659 0.010559 0.009568 0.008679 0.007886 0.007181 0.006558 0.006011 0.005534 0.005122 0.004770 0.004472 0.004226 0.004027 0.003873 0.003762 0.003691 0.003660 0.004700 0.004737 0.004820 0.004949 0.005126 0.005355 0.005637 0.005977 0.006377 0.006844 0.007382 0.007997 0.008694 0.009479 0.010359 0.011342 0.012433 0.013639 0.014969 0.016427 0.018022 0.019760 0.021645 0.023683 0.025879 0.028235 0.030752 0.033432 0.036272 0.039268 0.042414 0.045700 0.049113 0.052638 0.056253 0.059935 0.063656 0.067383 0.071079 0.074703 0.078212 0.081559 0.084696 0.087574 0.090148 0.092370 0.094202 0.095609 0.096562 0.097044 0.097044 0.096562 0.095609 0.094202 0.092370 0.090148 0.087574 0.084696 0.081559 0.078212 0.074703 0.071079 0.067383 0.063656 0.059935 0.056253 0.052638 0.049113 0.045700 0.042414 0.039268 0.036272 0.033432 0.030752 0.028235 0.025879 0.023683 0.021645 0.019760 0.018022 0.016427 0.014969 0.013639 0.012433 0.011342 0.010359 0.009479 0.008694 0.007997 0.007382 0.006844 0.006377 0.005977 0.005637 0.005355 0.005126 0.004949 0.004820 0.004737 0.004700 0.005978 0.006022 0.006118 0.006266 0.006470 0.006732 0.007053 0.007439 0.007893 0.008420 0.009025 0.009714 0.010491 0.011364 0.012339 0.013423 0.014622 0.015943 0.017393 0.018979 0.020706 0.022582 0.024610 0.026796 0.029144 0.031654 0.034329 0.037168 0.040168 0.043323 0.046627 0.050069 0.053634 0.057306 0.061064 0.064881 0.068730 0.072575 0.076380 0.080103 0.083701 0.087126 0.090330 0.093267 0.095888 0.098149 0.100011 0.101439 0.102407 0.102895 0.102895 0.102407 0.101439 0.100011 0.098149 0.095888 0.093267 0.090330 0.087126 0.083701 0.080103 0.076380 0.072575 0.068730 0.064881 0.061064 0.057306 0.053634 0.050069 0.046627 0.043323 0.040168 0.037168 0.034329 0.031654 0.029144 0.026796 0.024610 0.022582 0.020706 0.018979 0.017393 0.015943 0.014622 0.013423 0.012339 0.011364 0.010491 0.009714 0.009025 0.008420 0.007893 0.007439 0.007053 0.006732 0.006470 0.006266 0.006118 0.006022 0.005978 0.007537 0.007588 0.007699 0.007870 0.008103 0.008400 0.008766 0.009202 0.009715 0.010307 0.010985 0.011754 0.012619 0.013587 0.014664 0.015857 0.017172 0.018616 0.020195 0.021916 0.023785 0.025806 0.027986 0.030327 0.032833 0.035506 0.038344 0.041347 0.044512 0.047831 0.051296 0.054896 0.058616 0.062437 0.066336 0.070288 0.074262 0.078224 0.082135 0.085954 0.089637 0.093137 0.096405 0.099395 0.102060 0.104357 0.106246 0.107694 0.108675 0.109170 0.109170 0.108675 0.107694 0.106246 0.104357 0.102060 0.099395 0.096405 0.093137 0.089637 0.085954 0.082135 0.078224 0.074262 0.070288 0.066336 0.062437 0.058616 0.054896 0.051296 0.047831 0.044512 0.041347 0.038344 0.035506 0.032833 0.030327 0.027986 0.025806 0.023785 0.021916 0.020195 0.018616 0.017172 0.015857 0.014664 0.013587 0.012619 0.011754 0.010985 0.010307 0.009715 0.009202 0.008766 0.008400 0.008103 0.007870 0.007699 0.007588 0.007537 0.009427 0.009487 0.009614 0.009809 0.010074 0.010412 0.010825 0.011317 0.011893 0.012556 0.013313 0.014169 0.015128 0.016199 0.017385 0.018695 0.020134 0.021709 0.023426 0.025290 0.027308 0.029483 0.031821 0.034325 0.036996 0.039836 0.042843 0.046016 0.049349 0.052835 0.056464 0.060224 0.064098 0.068066 0.072107 0.076191 0.080287 0.084362 0.088376 0.092287 0.096050 0.099619 0.102947 0.105987 0.108692 0.111020 0.112934 0.114399 0.115391 0.115891 0.115891 0.115391 0.114399 0.112934 0.111020 0.108692 0.105987 0.102947 0.099619 0.096050 0.092287 0.088376 0.084362 0.080287 0.076191 0.072107 0.068066 0.064098 0.060224 0.056464 0.052835 0.049349 0.046016 0.042843 0.039836 0.036996 0.034325 0.031821 0.029483 0.027308 0.025290 0.023426 0.021709 0.020134 0.018695 0.017385 0.016199 0.015128 0.014169 0.013313 0.012556 0.011893 0.011317 0.010825 0.010412 0.010074 0.009809 0.009614 0.009487 0.009427 0.011705 0.011775 0.011921 0.012142 0.012442 0.012823 0.013287 0.013840 0.014484 0.015225 0.016067 0.017016 0.018078 0.019257 0.020561 0.021995 0.023566 0.025280 0.027141 0.029156 0.031330 0.033667 0.036170 0.038842 0.041684 0.044696 0.047877 0.051222 0.054726 0.058380 0.062174 0.066093 0.070120 0.074235 0.078413 0.082625 0.086841 0.091023 0.095134 0.099131 0.102969 0.106602 0.109984 0.113067 0.115808 0.118164 0.120098 0.121578 0.122579 0.123084 0.123084 0.122579 0.121578 0.120098 0.118164 0.115808 0.113067 0.109984 0.106602 0.102969 0.099131 0.095134 0.091023 0.086841 0.082625 0.078413 0.074235 0.070120 0.066093 0.062174 0.058380 0.054726 0.051222 0.047877 0.044696 0.041684 0.038842 0.036170 0.033667 0.031330 0.029156 0.027141 0.025280 0.023566 0.021995 0.020561 0.019257 0.018078 0.017016 0.016067 0.015225 0.014484 0.013840 0.013287 0.012823 0.012442 0.012142 0.011921 0.011775 0.011705 0.014436 0.014518 0.014683 0.014933 0.015271 0.015699 0.016220 0.016837 0.017555 0.018379 0.019312 0.020361 0.021531 0.022827 0.024255 0.025821 0.027531 0.029390 0.031404 0.033577 0.035913 0.038417 0.041091 0.043936 0.046953 0.050141 0.053498 0.057017 0.060693 0.064515 0.068472 0.072549 0.076727 0.080984 0.085294 0.089630 0.093958 0.098242 0.102443 0.106518 0.110424 0.114114 0.117543 0.120665 0.123435 0.125814 0.127764 0.129256 0.130264 0.130772 0.130772 0.130264 0.129256 0.127764 0.125814 0.123435 0.120665 0.117543 0.114114 0.110424 0.106518 0.102443 0.098242 0.093958 0.089630 0.085294 0.080984 0.076727 0.072549 0.068472 0.064515 0.060693 0.057017 0.053498 0.050141 0.046953 0.043936 0.041091 0.038417 0.035913 0.033577 0.031404 0.029390 0.027531 0.025821 0.024255 0.022827 0.021531 0.020361 0.019312 0.018379 0.017555 0.016837 0.016220 0.015699 0.015271 0.014933 0.014683 0.014518 0.014436 0.017694 0.017788 0.017975 0.018257 0.018635 0.019114 0.019694 0.020381 0.021178 0.022090 0.023121 0.024276 0.025560 0.026979 0.028538 0.030243 0.032098 0.034110 0.036281 0.038618 0.041122 0.043798 0.046647 0.049669 0.052864 0.056229 0.059762 0.063455 0.067302 0.071291 0.075408 0.079638 0.083961 0.088354 0.092791 0.097243 0.101676 0.106053 0.110335 0.114481 0.118445 0.122185 0.125653 0.128805 0.131599 0.133994 0.135957 0.137456 0.138470 0.138980 0.138980 0.138470 0.137456 0.135957 0.133994 0.131599 0.128805 0.125653 0.122185 0.118445 0.114481 0.110335 0.106053 0.101676 0.097243 0.092791 0.088354 0.083961 0.079638 0.075408 0.071291 0.067302 0.063455 0.059762 0.056229 0.052864 0.049669 0.046647 0.043798 0.041122 0.038618 0.036281 0.034110 0.032098 0.030243 0.028538 0.026979 0.025560 0.024276 0.023121 0.022090 0.021178 0.020381 0.019694 0.019114 0.018635 0.018257 0.017975 0.017788 0.017694 0.021561 0.021668 0.021879 0.022194 0.022617 0.023149 0.023794 0.024554 0.025435 0.026440 0.027573 0.028840 0.030245 0.031793 0.033489 0.035338 0.037344 0.039513 0.041848 0.044352 0.047028 0.049879 0.052904 0.056105 0.059478 0.063021 0.066729 0.070595 0.074608 0.078759 0.083031 0.087408 0.091869 0.096390 0.100945 0.105503 0.110030 0.114490 0.118843 0.123049 0.127063 0.130841 0.134340 0.137514 0.140324 0.142731 0.144701 0.146204 0.147220 0.147731 0.147731 0.147220 0.146204 0.144701 0.142731 0.140324 0.137514 0.134340 0.130841 0.127063 0.123049 0.118843 0.114490 0.110030 0.105503 0.100945 0.096390 0.091869 0.087408 0.083031 0.078759 0.074608 0.070595 0.066729 0.063021 0.059478 0.056105 0.052904 0.049879 0.047028 0.044352 0.041848 0.039513 0.037344 0.035338 0.033489 0.031793 0.030245 0.028840 0.027573 0.026440 0.025435 0.024554 0.023794 0.023149 0.022617 0.022194 0.021879 0.021668 0.021561 0.026130 0.026252 0.026487 0.026839 0.027308 0.027897 0.028609 0.029448 0.030416 0.031519 0.032759 0.034143 0.035673 0.037354 0.039192 0.041189 0.043351 0.045681 0.048182 0.050856 0.053706 0.056733 0.059936 0.063314 0.066864 0.070581 0.074461 0.078493 0.082668 0.086973 0.091392 0.095907 0.100496 0.105134 0.109795 0.114447 0.119057 0.123588 0.128001 0.132254 0.136306 0.140112 0.143631 0.146819 0.149637 0.152048 0.154018 0.155522 0.156537 0.157048 0.157048 0.156537 0.155522 0.154018 0.152048 0.149637 0.146819 0.143631 0.140112 0.136306 0.132254 0.128001 0.123588 0.119057 0.114447 0.109795 0.105134 0.100496 0.095907 0.091392 0.086973 0.082668 0.078493 0.074461 0.070581 0.066864 0.063314 0.059936 0.056733 0.053706 0.050856 0.048182 0.045681 0.043351 0.041189 0.039192 0.037354 0.035673 0.034143 0.032759 0.031519 0.030416 0.029448 0.028609 0.027897 0.027308 0.026839 0.026487 0.026252 0.026130 0.031503 0.031640 0.031902 0.032291 0.032809 0.033458 0.034241 0.035161 0.036221 0.037425 0.038777 0.040280 0.041939 0.043757 0.045739 0.047888 0.050208 0.052700 0.055368 0.058214 0.061237 0.064438 0.067816 0.071368 0.075090 0.078977 0.083021 0.087212 0.091539 0.095989 0.100543 0.105184 0.109888 0.114630 0.119383 0.124116 0.128793 0.133380 0.137838 0.142125 0.146202 0.150024 0.153552 0.156743 0.159560 0.161967 0.163933 0.165431 0.166442 0.166951 0.166951 0.166442 0.165431 0.163933 0.161967 0.159560 0.156743 0.153552 0.150024 0.146202 0.142125 0.137838 0.133380 0.128793 0.124116 0.119383 0.114630 0.109888 0.105184 0.100543 0.095989 0.091539 0.087212 0.083021 0.078977 0.075090 0.071368 0.067816 0.064438 0.061237 0.058214 0.055368 0.052700 0.050208 0.047888 0.045739 0.043757 0.041939 0.040280 0.038777 0.037425 0.036221 0.035161 0.034241 0.033458 0.032809 0.032291 0.031902 0.031640 0.031503 0.037792 0.037946 0.038237 0.038665 0.039234 0.039945 0.040800 0.041804 0.042958 0.044265 0.045731 0.047356 0.049146 0.051103 0.053231 0.055532 0.058009 0.060664 0.063498 0.066511 0.069704 0.073075 0.076623 0.080342 0.084229 0.088275 0.092473 0.096812 0.101280 0.105860 0.110536 0.115287 0.120090 0.124920 0.129748 0.134544 0.139273 0.143899 0.148385 0.152691 0.156777 0.160602 0.164125 0.167308 0.170114 0.172509 0.174463 0.175952 0.176955 0.177461 0.177461 0.176955 0.175952 0.174463 0.172509 0.170114 0.167308 0.164125 0.160602 0.156777 0.152691 0.148385 0.143899 0.139273 0.134544 0.129748 0.124920 0.120090 0.115287 0.110536 0.105860 0.101280 0.096812 0.092473 0.088275 0.084229 0.080342 0.076623 0.073075 0.069704 0.066511 0.063498 0.060664 0.058009 0.055532 0.053231 0.051103 0.049146 0.047356 0.045731 0.044265 0.042958 0.041804 0.040800 0.039945 0.039234 0.038665 0.038237 0.037946 0.037792 0.045122 0.045293 0.045613 0.046082 0.046702 0.047477 0.048406 0.049494 0.050743 0.052156 0.053735 0.055484 0.057405 0.059500 0.061772 0.064223 0.066855 0.069668 0.072663 0.075839 0.079195 0.082729 0.086436 0.090313 0.094352 0.098545 0.102884 0.107356 0.111947 0.116641 0.121420 0.126262 0.131146 0.136044 0.140927 0.145766 0.150527 0.155174 0.159670 0.163977 0.168056 0.171868 0.175374 0.178536 0.181320 0.183694 0.185629 0.187102 0.188094 0.188594 0.188594 0.188094 0.187102 0.185629 0.183694 0.181320 0.178536 0.175374 0.171868 0.168056 0.163977 0.159670 0.155174 0.150527 0.145766 0.140927 0.136044 0.131146 0.126262 0.121420 0.116641 0.111947 0.107356 0.102884 0.098545 0.094352 0.090313 0.086436 0.082729 0.079195 0.075839 0.072663 0.069668 0.066855 0.064223 0.061772 0.059500 0.057405 0.055484 0.053735 0.052156 0.050743 0.049494 0.048406 0.047477 0.046702 0.046082 0.045613 0.045293 0.045122 0.053625 0.053814 0.054163 0.054673 0.055346 0.056183 0.057187 0.058360 0.059704 0.061220 0.062912 0.064781 0.066830 0.069060 0.071473 0.074069 0.076849 0.079814 0.082961 0.086290 0.089799 0.093482 0.097337 0.101356 0.105532 0.109856 0.114316 0.118901 0.123596 0.128383 0.133243 0.138155 0.143096 0.148039 0.152956 0.157815 0.162586 0.167232 0.171718 0.176007 0.180061 0.183842 0.187315 0.190444 0.193194 0.195537 0.197445 0.198896 0.199873 0.200365 0.200365 0.199873 0.198896 0.197445 0.195537 0.193194 0.190444 0.187315 0.183842 0.180061 0.176007 0.171718 0.167232 0.162586 0.157815 0.152956 0.148039 0.143096 0.138155 0.133243 0.128383 0.123596 0.118901 0.114316 0.109856 0.105532 0.101356 0.097337 0.093482 0.089799 0.086290 0.082961 0.079814 0.076849 0.074069 0.071473 0.069060 0.066830 0.064781 0.062912 0.061220 0.059704 0.058360 0.057187 0.056183 0.055346 0.054673 0.054163 0.053814 0.053625 0.063442 0.063650 0.064028 0.064579 0.065303 0.066203 0.067279 0.068534 0.069969 0.071586 0.073