# vtk DataFile Version 3.0
vtk output
ASCII
DATASET STRUCTURED_POINTS
DIMENSIONS 100 100 1
SPACING 0.009579 0.009995 0
ORIGIN 0.006936 0.004107 0
POINT_DATA 10000
SCALARS RTData float
LOOKUP_TABLE default
0.901507 0.903706 0.905768 0.907698 0.909505 0.911200 0.912793 0.914286 0.915675 0.916938 0.918037 0.918920 0.919519 0.919755 0.919551 0.918834 0.917573 0.915811 0.913712 0.911551 0.909619 0.908089 0.906950 0.906060 0.905214 0.904180 0.902680 0.900365 0.896772 0.891327 0.883385 0.872351 0.857874 0.840072 0.819658 0.797838 0.775981 0.755210 0.736145 0.718862 0.703047 0.688207 0.673910 0.659994 0.646730 0.634805 0.625040 0.617950 0.613470 0.611045 0.609950 0.609558 0.609461 0.609450 0.609449 0.609449 0.609431 0.609310 0.608878 0.607749 0.605305 0.600668 0.592708 0.580136 0.561719 0.536628 0.504856 0.467533 0.426933 0.386043 0.347856 0.314683 0.287778 0.267342 0.252784 0.243069 0.237026 0.233556 0.231750 0.230925 0.230613 0.230526 0.230513 0.230511 0.230493 0.230393 0.229971 0.228571 0.224706 0.215570 0.197297 0.167807 0.131591 0.098521 0.075158 0.061337 0.053956 0.050217 0.048387 0.047545 0.904461 0.906684 0.908754 0.910676 0.912462 0.914130 0.915699 0.917183 0.918586 0.919892 0.921066 0.922047 0.922756 0.923095 0.922952 0.922208 0.920759 0.918586 0.915858 0.912988 0.910488 0.908668 0.907502 0.906759 0.906170 0.905482 0.904420 0.902629 0.899612 0.894714 0.887160 0.876191 0.861329 0.842690 0.821178 0.798346 0.775913 0.755207 0.736845 0.720760 0.706416 0.693074 0.680024 0.666811 0.653459 0.640608 0.629347 0.620675 0.614935 0.611713 0.610205 0.609638 0.609480 0.609452 0.609450 0.609449 0.609424 0.609276 0.608771 0.607483 0.604744 0.599624 0.590964 0.577498 0.558095 0.532121 0.499807 0.462474 0.422429 0.382506 0.345420 0.313216 0.286995 0.266943 0.252549 0.242882 0.236854 0.233407 0.231640 0.230860 0.230587 0.230523 0.230518 0.230519 0.230516 0.230462 0.230133 0.228842 0.224923 0.215067 0.194574 0.161253 0.121743 0.088289 0.066876 0.055483 0.050026 0.047562 0.046497 0.046080 0.907355 0.909609 0.911685 0.913590 0.915339 0.916957 0.918473 0.919919 0.921311 0.922647 0.923896 0.924994 0.925853 0.926361 0.926379 0.925737 0.924233 0.921703 0.918220 0.914350 0.911008 0.908783 0.907582 0.906986 0.906623 0.906226 0.905540 0.904215 0.901726 0.897334 0.890118 0.879129 0.863730 0.844038 0.821211 0.797246 0.774278 0.753824 0.736447 0.721884 0.709378 0.697982 0.686762 0.674971 0.662267 0.648989 0.636254 0.625550 0.617884 0.613260 0.610917 0.609927 0.609585 0.609490 0.609468 0.609455 0.609397 0.609161 0.608469 0.606839 0.603544 0.597613 0.587889 0.573193 0.552586 0.525713 0.493091 0.456209 0.417325 0.379000 0.343565 0.312722 0.287382 0.267724 0.253357 0.243519 0.237265 0.233628 0.231737 0.230893 0.230594 0.230524 0.230519 0.230519 0.230517 0.230464 0.230119 0.228718 0.224367 0.213242 0.190014 0.153033 0.111561 0.079274 0.060506 0.051481 0.047618 0.046093 0.045535 0.045361 0.910200 0.912494 0.914582 0.916467 0.918165 0.919707 0.921135 0.922500 0.923841 0.925175 0.926481 0.927698 0.928730 0.929458 0.929735 0.929363 0.928052 0.925413 0.921199 0.915976 0.911368 0.908588 0.907374 0.906937 0.906757 0.906575 0.906177 0.905230 0.903181 0.899204 0.892214 0.881049 0.864893 0.843882 0.819517 0.794345 0.770958 0.751005 0.734894 0.722102 0.711658 0.702472 0.693494 0.683794 0.672683 0.659994 0.646448 0.633672 0.623433 0.616562 0.612676 0.610794 0.609997 0.609692 0.609575 0.609497 0.609336 0.608900 0.607843 0.605614 0.601429 0.594298 0.583124 0.566896 0.544957 0.517292 0.484704 0.448785 0.411645 0.375487 0.342202 0.313111 0.288905 0.269732 0.255323 0.245124 0.238398 0.234326 0.232111 0.231061 0.230653 0.230535 0.230516 0.230514 0.230499 0.230393 0.229891 0.228090 0.222808 0.209762 0.183467 0.143683 0.102099 0.072207 0.056160 0.049068 0.046339 0.045418 0.045153 0.045095 0.913001 0.915354 0.917467 0.919336 0.920975 0.922418 0.923719 0.924949 0.926178 0.927453 0.928774 0.930083 0.931277 0.932231 0.932809 0.932835 0.932006 0.929756 0.925258 0.918460 0.911900 0.908292 0.907092 0.906813 0.906754 0.906698 0.906489 0.905807 0.904069 0.900351 0.893397 0.881815 0.864608 0.841984 0.815898 0.789561 0.766008 0.746891 0.732323 0.721459 0.713121 0.706151 0.699503 0.692235 0.683495 0.672664 0.659746 0.645836 0.632987 0.623068 0.616644 0.613056 0.611257 0.610403 0.609973 0.609660 0.609224 0.608371 0.606663 0.603474 0.597978 0.589218 0.576235 0.558281 0.535050 0.506874 0.474772 0.440335 0.405436 0.371889 0.341152 0.314178 0.291423 0.272952 0.258572 0.247922 0.240510 0.235737 0.232943 0.231488 0.230833 0.230589 0.230512 0.230479 0.230409 0.230156 0.229297 0.226724 0.219937 0.204404 0.175213 0.134194 0.094331 0.067376 0.053605 0.047826 0.045772 0.045176 0.045051 0.045037 0.915753 0.918193 0.920356 0.922226 0.923811 0.925141 0.926277 0.927311 0.928348 0.929479 0.930741 0.932083 0.933387 0.934513 0.935336 0.935735 0.935511 0.934162 0.930439 0.922678 0.913246 0.908162 0.906903 0.906745 0.906736 0.906727 0.906611 0.906070 0.904468 0.900779 0.893577 0.881245 0.862639 0.838129 0.810270 0.783005 0.759712 0.741845 0.729073 0.720186 0.713833 0.708844 0.704267 0.699285 0.693115 0.684986 0.674322 0.661255 0.647151 0.634295 0.624500 0.618116 0.614385 0.612299 0.611060 0.610116 0.609034 0.607367 0.604564 0.599924 0.592629 0.581827 0.566799 0.547134 0.522892 0.494677 0.463594 0.431105 0.398795 0.368111 0.340157 0.315587 0.294631 0.277226 0.263158 0.252170 0.243988 0.238276 0.234602 0.232456 0.231329 0.230795 0.230549 0.230392 0.230159 0.229592 0.228096 0.224317 0.215504 0.197276 0.166054 0.125696 0.088824 0.064683 0.052484 0.047393 0.045614 0.045124 0.045038 0.045034 0.918440 0.921004 0.923251 0.925154 0.926707 0.927931 0.928883 0.929664 0.930415 0.931288 0.932377 0.933658 0.934991 0.936193 0.937128 0.937720 0.937909 0.937469 0.935448 0.928934 0.916654 0.908618 0.906876 0.906735 0.906733 0.906731 0.906630 0.906082 0.904387 0.900417 0.892590 0.879109 0.858760 0.832212 0.802754 0.775046 0.752593 0.736410 0.725617 0.718650 0.714037 0.710647 0.707656 0.704432 0.700397 0.694913 0.687266 0.676899 0.664006 0.650060 0.637327 0.627461 0.620704 0.616336 0.613406 0.611087 0.608687 0.605559 0.601021 0.594333 0.584748 0.571624 0.554563 0.533514 0.508821 0.481201 0.451679 0.421480 0.391894 0.364086 0.338928 0.316885 0.298029 0.282145 0.268903 0.258003 0.249256 0.242545 0.237723 0.234528 0.232578 0.231460 0.230807 0.230321 0.229713 0.228565 0.226081 0.220682 0.209569 0.189001 0.157136 0.119066 0.085689 0.063856 0.052518 0.047576 0.045741 0.045181 0.045056 0.045039 0.921029 0.923759 0.926133 0.928111 0.929672 0.930824 0.931607 0.932113 0.932497 0.932972 0.933733 0.934824 0.936087 0.937273 0.938192 0.938777 0.939053 0.939039 0.938388 0.934903 0.923224 0.910681 0.907169 0.906765 0.906740 0.906722 0.906542 0.905788 0.903694 0.899055 0.890183 0.875175 0.852864 0.824368 0.793781 0.766327 0.745339 0.731194 0.722440 0.717236 0.714061 0.711854 0.709918 0.707794 0.705135 0.701561 0.696533 0.689349 0.679449 0.667045 0.653549 0.641002 0.630812 0.623170 0.617426 0.612657 0.607951 0.602462 0.595398 0.586042 0.573817 0.558379 0.539671 0.517919 0.493571 0.467253 0.439746 0.411984 0.385007 0.359821 0.337212 0.317591 0.300957 0.286987 0.275196 0.265121 0.256458 0.249118 0.243158 0.238625 0.235416 0.233256 0.231779 0.230589 0.229245 0.227147 0.223299 0.216007 0.202702 0.180645 0.149564 0.114725 0.084746 0.064634 0.053582 0.048366 0.046201 0.045412 0.045165 0.045107 0.923465 0.926403 0.928948 0.931045 0.932664 0.933801 0.934475 0.934746 0.934742 0.934702 0.934939 0.935653 0.936733 0.937843 0.938697 0.939193 0.939390 0.939423 0.939290 0.937876 0.930226 0.915704 0.908544 0.907066 0.906796 0.906622 0.906152 0.904885 0.902021 0.896331 0.886085 0.869354 0.845134 0.815100 0.784104 0.757664 0.738650 0.726708 0.719904 0.716235 0.714202 0.712822 0.711490 0.709874 0.707836 0.705280 0.701947 0.697269 0.690478 0.680999 0.669054 0.655908 0.643248 0.632170 0.622778 0.614463 0.606330 0.597468 0.587087 0.574604 0.559712 0.542390 0.522836 0.501352 0.478257 0.453881 0.428661 0.403244 0.378510 0.355443 0.334888 0.317324 0.302771 0.290858 0.280985 0.272512 0.264909 0.257882 0.251422 0.245727 0.241011 0.237312 0.234427 0.231958 0.229348 0.225829 0.220270 0.211013 0.195947 0.173385 0.144074 0.112695 0.085704 0.066823 0.055670 0.049878 0.047157 0.045983 0.045519 0.045366 0.925674 0.928860 0.931611 0.933861 0.935576 0.936753 0.937403 0.937551 0.937258 0.936695 0.936230 0.936306 0.937022 0.938007 0.938824 0.939284 0.939434 0.939447 0.939410 0.938610 0.933656 0.921450 0.911408 0.907781 0.906643 0.905901 0.904765 0.902646 0.898756 0.891874 0.880245 0.861952 0.836219 0.805303 0.774672 0.749843 0.733043 0.723240 0.718168 0.715783 0.714656 0.713869 0.712835 0.711249 0.709167 0.706867 0.704399 0.701335 0.696886 0.690173 0.680653 0.668573 0.655013 0.641266 0.628107 0.615544 0.603060 0.589976 0.575734 0.560050 0.542940 0.524621 0.505335 0.485203 0.464190 0.442209 0.419316 0.395918 0.372844 0.351194 0.332013 0.315947 0.303090 0.293055 0.285174 0.278691 0.272912 0.267298 0.261555 0.255687 0.249950 0.244651 0.239915 0.235551 0.231047 0.225585 0.218012 0.206840 0.190495 0.168131 0.140948 0.112748 0.088242 0.070257 0.058800 0.052255 0.048807 0.047101 0.046307 0.045980 0.927566 0.931036 0.934019 0.936433 0.938249 0.939485 0.940172 0.940328 0.939951 0.939069 0.937912 0.937070 0.937095 0.937814 0.938626 0.939159 0.939380 0.939419 0.939292 0.938214 0.933464 0.922916 0.912358 0.906779 0.904322 0.902708 0.900829 0.898002 0.893403 0.885749 0.873207 0.853866 0.827214 0.796076 0.766372 0.743415 0.728754 0.720822 0.717182 0.715840 0.715473 0.715213 0.714371 0.712415 0.709566 0.706878 0.704791 0.702780 0.699944 0.695289 0.687915 0.677348 0.663849 0.648304 0.631703 0.614655 0.597306 0.579570 0.561420 0.543015 0.524645 0.506550 0.488738 0.470924 0.452598 0.433218 0.412483 0.390606 0.368456 0.347397 0.328814 0.313608 0.301955 0.293419 0.287243 0.282601 0.278736 0.275008 0.270922 0.266168 0.260694 0.254693 0.248445 0.242058 0.235287 0.227489 0.217667 0.204611 0.187247 0.165295 0.140050 0.114468 0.091960 0.074682 0.062887 0.055545 0.051277 0.048921 0.047682 0.047081 0.929035 0.932830 0.936065 0.938634 0.940523 0.941785 0.942500 0.942725 0.942451 0.941595 0.940107 0.938340 0.937229 0.937285 0.937960 0.938597 0.938943 0.938958 0.938382 0.935942 0.928890 0.916822 0.905652 0.899235 0.896258 0.894677 0.893169 0.890798 0.886549 0.879003 0.866249 0.846430 0.819350 0.788388 0.759799 0.738601 0.725742 0.719283 0.716733 0.716207 0.716516 0.716860 0.716413 0.713785 0.708905 0.705312 0.703674 0.702610 0.700974 0.697751 0.691904 0.682530 0.669198 0.652183 0.632348 0.610766 0.588421 0.566149 0.544687 0.524640 0.506352 0.489783 0.474478 0.459651 0.444329 0.427558 0.408696 0.387772 0.365749 0.344395 0.325616 0.310664 0.299768 0.292352 0.287489 0.284254 0.281877 0.279743 0.277345 0.274246 0.270106 0.264753 0.258218 0.250624 0.241962 0.231911 0.219819 0.204872 0.186462 0.164702 0.140854 0.117215 0.096259 0.079601 0.067567 0.059521 0.054449 0.051393 0.049621 0.048646 0.929959 0.934134 0.937657 0.940376 0.942291 0.943513 0.944192 0.944452 0.944329 0.943729 0.942417 0.940253 0.937880 0.936585 0.936565 0.936988 0.937178 0.936654 0.934463 0.928358 0.916148 0.901598 0.891560 0.886816 0.885124 0.884759 0.884553 0.883450 0.880243 0.873363 0.860827 0.840839 0.813531 0.782806 0.755175 0.735352 0.723803 0.718351 0.716526 0.716566 0.717410 0.718337 0.718633 0.715620 0.705539 0.701942 0.701622 0.701638 0.700955 0.698688 0.693768 0.685009 0.671428 0.652700 0.629465 0.603261 0.576113 0.550015 0.526494 0.506341 0.489584 0.475629 0.463482 0.451933 0.439673 0.425422 0.408182 0.387716 0.365056 0.342513 0.322762 0.307541 0.297082 0.290524 0.286662 0.284426 0.283033 0.281939 0.280727 0.279006 0.276358 0.272367 0.266696 0.259157 0.249653 0.238040 0.224029 0.207269 0.187639 0.165610 0.142455 0.120040 0.100198 0.084092 0.071988 0.063450 0.057718 0.054013 0.051691 0.050283 0.930181 0.934828 0.938716 0.941615 0.943533 0.944658 0.945233 0.945458 0.945428 0.945092 0.944191 0.942279 0.939235 0.936183 0.934425 0.933615 0.932578 0.929983 0.923835 0.911994 0.896843 0.885711 0.880588 0.878834 0.878510 0.878794 0.879126 0.878684 0.876200 0.869906 0.857632 0.837550 0.810038 0.779433 0.752431 0.733477 0.722693 0.717770 0.716280 0.716569 0.717676 0.718891 0.719366 0.715875 0.698582 0.698742 0.699810 0.700640 0.700566 0.698812 0.694260 0.685469 0.670968 0.649908 0.622812 0.591910 0.560559 0.531979 0.508163 0.489576 0.475545 0.464823 0.456000 0.447650 0.438319 0.426503 0.410809 0.390547 0.366644 0.342060 0.320576 0.304635 0.294400 0.288552 0.285490 0.283967 0.283187 0.282684 0.282152 0.281302 0.279772 0.277081 0.272670 0.266005 0.256673 0.244407 0.229075 0.210712 0.189679 0.166851 0.143637 0.121701 0.102476 0.086777 0.074727 0.065936 0.059774 0.055586 0.052808 0.051006 0.929483 0.934734 0.939145 0.942332 0.944293 0.945315 0.945757 0.945906 0.945906 0.945746 0.945201 0.943756 0.940765 0.936406 0.932143 0.928629 0.924690 0.918332 0.907798 0.894330 0.883550 0.878407 0.876771 0.876400 0.876439 0.876682 0.876916 0.876531 0.874306 0.868345 0.856281 0.836176 0.808542 0.777999 0.751322 0.732753 0.722219 0.717371 0.715827 0.715976 0.716902 0.717994 0.718210 0.703422 0.697692 0.698058 0.699161 0.700131 0.700186 0.698468 0.693719 0.684196 0.667962 0.643757 0.612285 0.576904 0.542559 0.513407 0.491222 0.475567 0.464893 0.457446 0.451653 0.446119 0.439441 0.430016 0.416041 0.396118 0.370700 0.343344 0.319367 0.302272 0.292091 0.286846 0.284441 0.283432 0.283025 0.282828 0.282634 0.282259 0.281420 0.279665 0.276360 0.270744 0.262071 0.249780 0.233644 0.213884 0.191268 0.167111 0.143097 0.120887 0.101712 0.086141 0.074131 0.065244 0.058878 0.054436 0.051407 0.049395 0.927556 0.933551 0.938754 0.942475 0.944628 0.945617 0.945959 0.946036 0.946038 0.945972 0.945639 0.944535 0.941819 0.936868 0.930350 0.923433 0.915798 0.906174 0.894688 0.884466 0.878610 0.876524 0.876071 0.876019 0.876048 0.876150 0.876214 0.875727 0.873532 0.867719 0.855826 0.835847 0.808341 0.778001 0.751518 0.732976 0.722269 0.717115 0.715176 0.714818 0.715004 0.714775 0.711717 0.702538 0.698677 0.698735 0.699502 0.700132 0.699855 0.697684 0.692135 0.681115 0.662251 0.634101 0.598031 0.559040 0.523597 0.496023 0.477042 0.465009 0.457656 0.453026 0.449649 0.446346 0.441924 0.434824 0.422917 0.403916 0.377249 0.346682 0.319472 0.300731 0.290383 0.285602 0.283708 0.283061 0.282868 0.282809 0.282759 0.282610 0.282152 0.280984 0.278456 0.273689 0.265682 0.253548 0.236813 0.215699 0.191260 0.165265 0.139785 0.116647 0.097017 0.081291 0.069262 0.060388 0.054031 0.049600 0.046605 0.044674 0.924041 0.930780 0.937125 0.941836 0.944517 0.945663 0.946001 0.946051 0.946051 0.946017 0.945749 0.944757 0.942154 0.936924 0.928915 0.919199 0.908661 0.897688 0.887623 0.880602 0.877227 0.876182 0.876008 0.876001 0.876008 0.876042 0.875989 0.875356 0.873037 0.867177 0.855361 0.835648 0.808626 0.778827 0.752624 0.733939 0.722783 0.717054 0.714501 0.713464 0.712800 0.711485 0.708361 0.703799 0.700949 0.700235 0.700331 0.700311 0.699323 0.696210 0.689218 0.675887 0.653533 0.620928 0.580727 0.539835 0.505585 0.481386 0.466391 0.457900 0.453314 0.450774 0.449074 0.447345 0.444678 0.439706 0.430171 0.412959 0.385959 0.352315 0.321273 0.300286 0.289411 0.284862 0.283302 0.282880 0.282797 0.282786 0.282779 0.282723 0.282455 0.281608 0.279540 0.275297 0.267696 0.255554 0.238104 0.215460 0.188885 0.160618 0.133218 0.108795 0.088529 0.072659 0.060782 0.052201 0.046187 0.042105 0.039459 0.037881 0.918820 0.925800 0.933443 0.939816 0.943682 0.945389 0.945928 0.946035 0.946038 0.945967 0.945614 0.944485 0.941704 0.936154 0.927276 0.915946 0.903947 0.892971 0.884495 0.879314 0.876945 0.876177 0.876020 0.876005 0.876011 0.876008 0.875831 0.874964 0.872331 0.866174 0.854260 0.834874 0.808673 0.779845 0.754189 0.735398 0.723684 0.717243 0.713991 0.712310 0.711087 0.709541 0.707260 0.704630 0.702631 0.701581 0.700998 0.700156 0.698134 0.693588 0.684487 0.668072 0.641625 0.604705 0.561766 0.521270 0.490235 0.470335 0.459232 0.453657 0.451057 0.449853 0.449152 0.448387 0.446942 0.443720 0.436574 0.421894 0.395940 0.360186 0.325149 0.301256 0.289293 0.284603 0.283149 0.282822 0.282782 0.282781 0.282781 0.282754 0.282558 0.281844 0.279960 0.275897 0.268322 0.255804 0.237301 0.212802 0.183783 0.153006 0.123612 0.098043 0.077475 0.061926 0.050718 0.042934 0.037702 0.034316 0.032255 0.031159 0.912648 0.918572 0.926686 0.935122 0.941213 0.944301 0.945475 0.945818 0.945851 0.945666 0.945061 0.943547 0.940302 0.934300 0.924970 0.913137 0.900947 0.890587 0.883271 0.879027 0.877037 0.876297 0.876082 0.876032 0.876011 0.875923 0.875528 0.874267 0.871085 0.864358 0.852136 0.833067 0.807934 0.780469 0.755714 0.737017 0.724804 0.717642 0.713696 0.711460 0.709902 0.708391 0.706675 0.704885 0.703330 0.702098 0.700893 0.699094 0.695718 0.689248 0.677422 0.657372 0.626788 0.586588 0.543040 0.505141 0.478463 0.462810 0.454909 0.451419 0.450066 0.449592 0.449383 0.449114 0.448412 0.446454 0.441348 0.429409 0.405747 0.369609 0.331269 0.303996 0.290215 0.284853 0.283204 0.282832 0.282783 0.282781 0.282781 0.282752 0.282550 0.281813 0.279864 0.275629 0.267648 0.254288 0.234293 0.207598 0.175973 0.142794 0.111816 0.085754 0.065644 0.051148 0.041227 0.034704 0.030565 0.028048 0.026630 0.025981 0.907340 0.910924 0.917283 0.926350 0.935218 0.940964 0.943675 0.944693 0.944900 0.944573 0.943584 0.941500 0.937618 0.931139 0.921720 0.910225 0.898723 0.889277 0.882815 0.879078 0.877233 0.876448 0.876149 0.876021 0.875897 0.875605 0.874829 0.872962 0.868980 0.861430 0.848722 0.829941 0.806018 0.780195 0.756678 0.738365 0.725838 0.718051 0.713466 0.710735 0.708903 0.707388 0.705915 0.704433 0.702970 0.701441 0.699520 0.696562 0.691496 0.682656 0.667681 0.643905 0.609917 0.568247 0.526331 0.492454 0.470247 0.458135 0.452543 0.450379 0.449714 0.449569 0.449541 0.449472 0.449164 0.447999 0.444344 0.434714 0.413812 0.379101 0.339177 0.308730 0.292463 0.285776 0.283540 0.282936 0.282811 0.282791 0.282783 0.282720 0.282427 0.281508 0.279235 0.274463 0.265621 0.250933 0.229032 0.199938 0.165843 0.130796 0.099081 0.073477 0.054675 0.041859 0.033609 0.028530 0.025524 0.023827 0.022956 0.022631 0.904327 0.905726 0.908893 0.915259 0.924499 0.933121 0.938527 0.941094 0.941934 0.941648 0.940318 0.937670 0.933211 0.926451 0.917340 0.906764 0.896466 0.888111 0.882389 0.879008 0.877244 0.876403 0.875998 0.875729 0.875383 0.874722 0.873360 0.870656 0.865644 0.857088 0.843791 0.825285 0.802631 0.778590 0.756552 0.738919 0.726332 0.718087 0.712954 0.709765 0.707637 0.705996 0.704508 0.702998 0.701327 0.699276 0.696427 0.692053 0.684985 0.673490 0.655314 0.628351 0.592398 0.551331 0.512713 0.483287 0.464953 0.455450 0.451353 0.449947 0.449615 0.449587 0.449594 0.449583 0.449451 0.448695 0.445842 0.437641 0.418972 0.386668 0.347391 0.315095 0.296242 0.287660 0.284377 0.283280 0.282949 0.282847 0.282779 0.282609 0.282102 0.280802 0.277918 0.272229 0.262084 0.245648 0.221587 0.190176 0.154138 0.118130 0.086725 0.062487 0.045593 0.034735 0.028191 0.024450 0.022410 0.021359 0.020876 0.020744 0.903344 0.903652 0.904562 0.907199 0.912927 0.921067 0.928459 0.933147 0.935294 0.935548 0.934238 0.931350 0.926675 0.920045 0.911659 0.902359 0.893505 0.886329 0.881339 0.878299 0.876623 0.875731 0.875191 0.874695 0.873989 0.872772 0.870610 0.866858 0.860649 0.850995 0.837100 0.818889 0.797502 0.775254 0.754811 0.738086 0.725696 0.717193 0.711629 0.708017 0.705553 0.703660 0.701953 0.700155 0.698015 0.695197 0.691185 0.685167 0.675927 0.661792 0.640855 0.611822 0.575660 0.536924 0.502401 0.477107 0.461772 0.454018 0.450796 0.449776 0.449586 0.449592 0.449599 0.449597 0.449510 0.448847 0.446144 0.438262 0.420527 0.390336 0.353407 0.321513 0.301107 0.290607 0.285936 0.284043 0.283301 0.282972 0.282717 0.282296 0.281389 0.279461 0.275652 0.268684 0.256880 0.238452 0.212262 0.178980 0.141868 0.105972 0.075822 0.053535 0.038743 0.029758 0.024694 0.022024 0.020705 0.020101 0.019861 0.019823 0.903286 0.903278 0.903296 0.903744 0.905640 0.909946 0.915827 0.921086 0.924376 0.925529 0.924747 0.922166 0.917827 0.911824 0.904513 0.896652 0.889273 0.883268 0.879009 0.876325 0.874757 0.873812 0.873090 0.872270 0.871058 0.869109 0.865965 0.861016 0.853532 0.842792 0.828368 0.810494 0.790325 0.769780 0.750922 0.735230 0.723237 0.714666 0.708796 0.704808 0.701977 0.699734 0.697649 0.695371 0.692555 0.688778 0.683447 0.675707 0.664379 0.648005 0.625194 0.595507 0.560724 0.525362 0.494988 0.473157 0.459986 0.453311 0.450539 0.449679 0.449544 0.449573 0.449591 0.449577 0.449409 0.448494 0.445202 0.436309 0.417705 0.388296 0.354235 0.324980 0.305179 0.293824 0.287986 0.285173 0.283819 0.283063 0.282424 0.281543 0.279999 0.277179 0.272162 0.263647 0.250007 0.229617 0.201666 0.167282 0.130121 0.095301 0.067014 0.046843 0.033991 0.026558 0.022624 0.020719 0.019885 0.019560 0.019456 0.019451 0.903381 0.903342 0.903136 0.902641 0.902155 0.902631 0.904781 0.907986 0.910870 0.912439 0.912310 0.910428 0.906874 0.901858 0.895795 0.889348 0.883317 0.878361 0.874766 0.872412 0.870933 0.869901 0.868931 0.867685 0.865836 0.863015 0.858771 0.852567 0.843833 0.832112 0.817281 0.799790 0.780752 0.761743 0.744351 0.729695 0.718207 0.709704 0.703635 0.699324 0.696122 0.693475 0.690921 0.688055 0.684466 0.679670 0.673039 0.663741 0.650727 0.632861 0.609311 0.580318 0.548011 0.516395 0.489792 0.470705 0.459027 0.452958 0.450352 0.449515 0.449388 0.449439 0.449463 0.449365 0.448887 0.447186 0.442246 0.430597 0.408955 0.378655 0.347232 0.322075 0.305216 0.295016 0.289175 0.285903 0.284012 0.282737 0.281553 0.280021 0.277639 0.273729 0.267337 0.257188 0.241777 0.219742 0.190669 0.156087 0.119815 0.086728 0.060510 0.042277 0.030984 0.024683 0.021512 0.020093 0.019547 0.019378 0.019340 0.019342 0.903402 0.903383 0.903091 0.901949 0.899694 0.897152 0.895716 0.895928 0.897122 0.898204 0.898338 0.897105 0.894417 0.890431 0.885531 0.880283 0.875327 0.871182 0.868081 0.865940 0.864459 0.863253 0.861941 0.860166 0.857581 0.853809 0.848436 0.841019 0.831159 0.818629 0.803538 0.786458 0.768424 0.750729 0.734598 0.720874 0.709888 0.701512 0.695313 0.690727 0.687178 0.684133 0.681117 0.677685 0.673387 0.667712 0.660043 0.649625 0.635604 0.617184 0.594009 0.566726 0.537444 0.509471 0.486089 0.469115 0.458432 0.452637 0.449994 0.449061 0.448872 0.448882 0.448805 0.448387 0.447098 0.443633 0.435359 0.418638 0.391928 0.360086 0.331777 0.311712 0.299247 0.291894 0.287544 0.284850 0.282996 0.281448 0.279781 0.277568 0.274284 0.269229 0.261457 0.249770 0.232852 0.209667 0.180194 0.146237 0.111524 0.080472 0.056217 0.039546 0.029347 0.023754 0.021015 0.019846 0.019438 0.019336 0.019324 0.019324 0.903388 0.903301 0.902577 0.900088 0.895461 0.890206 0.886276 0.884393 0.884078 0.884367 0.884346 0.883403 0.881279 0.878022 0.873930 0.869477 0.865192 0.861502 0.858612 0.856465 0.854806 0.853278 0.851501 0.849103 0.845724 0.840998 0.834559 0.826069 0.815281 0.802150 0.786937 0.770268 0.753080 0.736441 0.721310 0.708331 0.697758 0.689490 0.683183 0.678366 0.674529 0.671170 0.667813 0.663997 0.659251 0.653063 0.644854 0.633974 0.619765 0.601722 0.579806 0.554826 0.528666 0.503967 0.483227 0.467840 0.457775 0.451994 0.449121 0.447922 0.447497 0.447245 0.446725 0.445405 0.442286 0.435359 0.421363 0.397438 0.365712 0.334704 0.311762 0.297743 0.289967 0.285761 0.283401 0.281894 0.280646 0.279249 0.277359 0.274599 0.270476 0.264318 0.255240 0.242179 0.224064 0.200211 0.170951 0.138208 0.105426 0.076441 0.053881 0.038344 0.028794 0.023528 0.020937 0.019826 0.019435 0.019337 0.019324 0.019325 0.902736 0.902030 0.899286 0.893258 0.885411 0.878753 0.874565 0.872532 0.871860 0.871722 0.871389 0.870327 0.868260 0.865189 0.861350 0.857142 0.853013 0.849330 0.846279 0.843822 0.841738 0.839696 0.837317 0.834222 0.830044 0.824437 0.817084 0.807734 0.796260 0.782740 0.767519 0.751229 0.734712 0.718867 0.704467 0.692024 0.681737 0.673530 0.667127 0.662137 0.658118 0.654609 0.651147 0.647270 0.642498 0.636326 0.628215 0.617607 0.603996 0.587074 0.566968 0.544494 0.521248 0.499323 0.480665 0.466410 0.456638 0.450617 0.447263 0.445512 0.444487 0.443478 0.441791 0.438466 0.431852 0.419257 0.397691 0.367348 0.335114 0.309843 0.294378 0.286269 0.282323 0.280443 0.279510 0.278917 0.278248 0.277130 0.275186 0.272007 0.267109 0.259871 0.249516 0.235173 0.216067 0.191878 0.163229 0.132039 0.101339 0.074334 0.053193 0.038419 0.029147 0.023894 0.021215 0.020000 0.019526 0.019376 0.019341 0.019342 0.896658 0.892378 0.883939 0.874193 0.867165 0.863400 0.861744 0.861186 0.861050 0.860822 0.860078 0.858498 0.855927 0.852411 0.848181 0.843599 0.839062 0.834895 0.831270 0.828166 0.825393 0.822642 0.819546 0.815725 0.810811 0.804471 0.796422 0.786472 0.774567 0.760851 0.745708 0.729752 0.713747 0.698479 0.684603 0.672547 0.662480 0.654344 0.647919 0.642882 0.638852 0.635419 0.632147 0.628582 0.624244 0.618627 0.611213 0.601499 0.589068 0.573717 0.555632 0.535557 0.514822 0.495112 0.477996 0.464447 0.454641 0.448079 0.443901 0.441158 0.438947 0.436382 0.432432 0.425636 0.413827 0.394484 0.366917 0.335722 0.309327 0.292465 0.283770 0.279860 0.278233 0.277590 0.277338 0.277164 0.276785 0.275839 0.273865 0.270341 0.264712 0.256381 0.244708 0.229069 0.209039 0.184674 0.156837 0.127359 0.098789 0.073690 0.053793 0.039549 0.030303 0.024833 0.021878 0.020423 0.019776 0.019520 0.019436 0.019431 0.874863 0.864967 0.856538 0.852254 0.850951 0.851081 0.851736 0.852365 0.852582 0.852083 0.850637 0.848108 0.844491 0.839927 0.834694 0.829154 0.823682 0.818579 0.814009 0.809967 0.806291 0.802700 0.798844 0.794346 0.788836 0.781978 0.773500 0.763227 0.751133 0.737389 0.722390 0.706734 0.691144 0.676342 0.662922 0.651261 0.641508 0.633609 0.627373 0.622519 0.618719 0.615606 0.612783 0.609815 0.606230 0.601522 0.595176 0.586705 0.575724 0.562064 0.545908 0.527903 0.509165 0.491086 0.474976 0.461705 0.451510 0.444058 0.438638 0.434362 0.430259 0.425243 0.417979 0.406732 0.389565 0.365586 0.337362 0.311357 0.293167 0.283286 0.278907 0.277250 0.276696 0.276537 0.276503 0.276450 0.276168 0.275287 0.273262 0.269427 0.263100 0.253660 0.240600 0.223592 0.202614 0.178116 0.151173 0.123472 0.097065 0.073882 0.055221 0.041463 0.032151 0.026344 0.022991 0.021190 0.020289 0.019872 0.019703 0.019671 0.852965 0.847345 0.844998 0.844479 0.844761 0.845493 0.846358 0.846917 0.846722 0.845426 0.842829 0.838902 0.833762 0.827660 0.820939 0.813990 0.807188 0.800826 0.795071 0.789931 0.785272 0.780840 0.776300 0.771279 0.765393 0.758285 0.749661 0.739331 0.727260 0.713625 0.698828 0.683480 0.668304 0.654010 0.641164 0.630108 0.620955 0.613628 0.607923 0.603570 0.600261 0.597668 0.595431 0.593154 0.590391 0.586650 0.581418 0.574203 0.564618 0.552480 0.537932 0.521526 0.504211 0.487171 0.471543 0.458116 0.447168 0.438467 0.431398 0.425101 0.418545 0.410530 0.399653 0.384454 0.364092 0.339749 0.315548 0.296535 0.284902 0.279286 0.277120 0.276460 0.276305 0.276281 0.276284 0.276244 0.275976 0.275087 0.272947 0.268754 0.261679 0.251051 0.236495 0.218014 0.196030 0.171397 0.145368 0.119467 0.095264 0.074097 0.056830 0.043715 0.034445 0.028334 0.024559 0.022361 0.021150 0.020520 0.020226 0.020134 0.845673 0.843872 0.843450 0.843421 0.843538 0.843829 0.844111 0.843926 0.842734 0.840128 0.835933 0.830208 0.823191 0.815232 0.806740 0.798143 0.789828 0.782096 0.775119 0.768922 0.763389 0.758283 0.753277 0.747990 0.742011 0.734942 0.726442 0.716278 0.704392 0.690962 0.676424 0.661437 0.646773 0.633165 0.621164 0.611063 0.602904 0.596543 0.591727 0.588162 0.585543 0.583566 0.581916 0.580248 0.578163 0.575205 0.570875 0.564676 0.556200 0.545225 0.531836 0.516493 0.500017 0.483448 0.467799 0.453806 0.441767 0.431519 0.422518 0.413944 0.404788 0.393914 0.380190 0.362865 0.342318 0.320801 0.301958 0.288628 0.281105 0.277735 0.276571 0.276289 0.276251 0.276250 0.276249 0.276199 0.275903 0.274920 0.272532 0.267803 0.259773 0.247741 0.231493 0.211403 0.188359 0.163596 0.138493 0.114385 0.092402 0.073367 0.057734 0.045579 0.036649 0.030451 0.026379 0.023834 0.022316 0.021454 0.021002 0.020814 0.844060 0.843461 0.843376 0.843375 0.843390 0.843385 0.843074 0.841917 0.839347 0.835005 0.828839 0.821051 0.811995 0.802096 0.791808 0.781584 0.771833 0.762871 0.754880 0.747892 0.741791 0.736340 0.731202 0.725972 0.720200 0.713435 0.705273 0.695429 0.683819 0.670639 0.656393 0.641838 0.627836 0.615155 0.604313 0.595512 0.588681 0.583573 0.579864 0.577227 0.575357 0.573979 0.572825 0.571607 0.569983 0.567545 0.563818 0.558308 0.550576 0.540354 0.527657 0.512861 0.496687 0.480073 0.463955 0.449038 0.435641 0.423665 0.412644 0.401851 0.390406 0.377414 0.362205 0.344729 0.326038 0.308338 0.294091 0.284594 0.279427 0.277175 0.276429 0.276266 0.276250 0.276249 0.276244 0.276164 0.275770 0.274547 0.271668 0.266066 0.256689 0.242871 0.224644 0.202810 0.178717 0.153899 0.129768 0.107425 0.087616 0.070742 0.056924 0.046056 0.037861 0.031948 0.027867 0.025170 0.023457 0.022416 0.021822 0.021529 0.843552 0.843391 0.843373 0.843370 0.843322 0.843010 0.841933 0.839440 0.835028 0.828548 0.820190 0.810321 0.799363 0.787749 0.775933 0.764383 0.753533 0.743726 0.735149 0.727824 0.721611 0.716243 0.711353 0.706502 0.701197 0.694932 0.687238 0.677777 0.666447 0.653488 0.639518 0.625439 0.612228 0.600677 0.591225 0.583931 0.578574 0.574791 0.572197 0.570444 0.569246 0.568367 0.567587 0.566672 0.565335 0.563209 0.559848 0.554756 0.547464 0.537650 0.525256 0.510580 0.494266 0.477187 0.460236 0.444117 0.429190 0.415433 0.402488 0.389775 0.376622 0.362446 0.347000 0.330648 0.314538 0.300338 0.289488 0.282455 0.278652 0.276975 0.276402 0.276266 0.276248 0.276244 0.276212 0.276036 0.275398 0.273675 0.269907 0.262911 0.251611 0.235504 0.215006 0.191405 0.166446 0.141809 0.118787 0.098196 0.080436 0.065606 0.053596 0.044167 0.037002 0.031742 0.028020 0.025482 0.023816 0.022765 0.022139 0.021808 0.842691 0.843010 0.843158 0.843125 0.842784 0.841697 0.839170 0.834591 0.827767 0.818950 0.808