# vtk DataFile Version 3.0
vtk output
ASCII
DATASET STRUCTURED_POINTS
DIMENSIONS 50 50 50
SPACING 0.020408 0.020408 0.020408
ORIGIN 0.000000 0.000000 0.000000
POINT_DATA 125000
SCALARS RTData float
LOOKUP_TABLE default
0.000000 0.000000 0.000000 0.000002 0.000005 0.000014 0.000029 0.000056 0.000097 0.000160 0.000250 0.000375 0.000544 0.000767 0.001056 0.001424 0.001885 0.002455 0.003151 0.003992 0.004999 0.006194 0.007599 0.009239 0.011139 0.013326 0.015825 0.018665 0.021871 0.025471 0.029490 0.033954 0.038884 0.044302 0.050225 0.056669 0.063645 0.071161 0.079219 0.087820 0.096956 0.106618 0.116788 0.127448 0.138572 0.150130 0.162091 0.174416 0.187066 0.200000 0.000000 0.000000 0.000001 0.000002 0.000006 0.000015 0.000032 0.000060 0.000104 0.000169 0.000263 0.000393 0.000570 0.000802 0.001102 0.001485 0.001964 0.002556 0.003279 0.004154 0.005201 0.006442 0.007903 0.009608 0.011583 0.013857 0.016455 0.019407 0.022741 0.026484 0.030662 0.035300 0.040423 0.046051 0.052202 0.058891 0.066130 0.073924 0.082276 0.091184 0.100640 0.110632 0.121141 0.132145 0.143617 0.155524 0.167832 0.180500 0.193486 0.206747 0.000000 0.000001 0.000001 0.000004 0.000009 0.000020 0.000038 0.000069 0.000117 0.000187 0.000288 0.000426 0.000612 0.000857 0.001173 0.001575 0.002077 0.002697 0.003454 0.004369 0.005463 0.006760 0.008285 0.010065 0.012126 0.014498 0.017208 0.020286 0.023760 0.027660 0.032012 0.036843 0.042175 0.048031 0.054427 0.061380 0.068898 0.076989 0.085653 0.094886 0.104678 0.115016 0.125878 0.137240 0.149072 0.161339 0.174002 0.187020 0.200347 0.213937 0.000002 0.000002 0.000004 0.000007 0.000015 0.000028 0.000050 0.000085 0.000139 0.000216 0.000326 0.000475 0.000675 0.000937 0.001273 0.001699 0.002230 0.002884 0.003682 0.004644 0.005793 0.007155 0.008754 0.010619 0.012778 0.015260 0.018095 0.021313 0.024944 0.029017 0.033560 0.038599 0.044159 0.050260 0.056922 0.064156 0.071974 0.080380 0.089374 0.098949 0.109095 0.119795 0.131025 0.142758 0.154961 0.167596 0.180623 0.193995 0.207667 0.221587 0.000005 0.000006 0.000009 0.000015 0.000025 0.000042 0.000069 0.000110 0.000172 0.000259 0.000380 0.000544 0.000762 0.001044 0.001405 0.001861 0.002427 0.003122 0.003968 0.004986 0.006200 0.007635 0.009320 0.011282 0.013551 0.016157 0.019131 0.022504 0.026307 0.030571 0.035322 0.040589 0.046395 0.052762 0.059707 0.067244 0.075381 0.084121 0.093463 0.103399 0.113915 0.124992 0.136604 0.148720 0.161305 0.174318 0.187714 0.201445 0.215462 0.229712 0.000014 0.000015 0.000020 0.000028 0.000042 0.000064 0.000097 0.000147 0.000219 0.000319 0.000455 0.000637 0.000876 0.001185 0.001576 0.002067 0.002675 0.003419 0.004321 0.005403 0.006692 0.008213 0.009994 0.012066 0.014458 0.017203 0.020332 0.023877 0.027870 0.032341 0.037320 0.042833 0.048906 0.055559 0.062808 0.070667 0.079143 0.088238 0.097948 0.108262 0.119165 0.130634 0.142641 0.155152 0.168128 0.181525 0.195295 0.209387 0.223749 0.238326 0.000029 0.000032 0.000038 0.000050 0.000069 0.000097 0.000139 0.000200 0.000284 0.000400 0.000555 0.000760 0.001025 0.001364 0.001792 0.002326 0.002982 0.003783 0.004750 0.005907 0.007281 0.008899 0.010790 0.012985 0.015515 0.018414 0.021715 0.025449 0.029650 0.034349 0.039575 0.045356 0.051717 0.058676 0.066252 0.074454 0.083290 0.092759 0.102855 0.113565 0.124871 0.136747 0.149162 0.162077 0.175452 0.189238 0.203385 0.217838 0.232543 0.247442 0.000056 0.000060 0.000069 0.000085 0.000110 0.000147 0.000200 0.000273 0.000373 0.000508 0.000686 0.000918 0.001215 0.001591 0.002062 0.002645 0.003359 0.004225 0.005267 0.006510 0.007981 0.009708 0.011722 0.014055 0.016740 0.019810 0.023300 0.027242 0.031671 0.036618 0.042113 0.048183 0.054853 0.062141 0.070064 0.078632 0.087848 0.097711 0.108212 0.119336 0.131060 0.143356 0.156189 0.169518 0.183298 0.197476 0.212000 0.226813 0.241856 0.257069 0.000097 0.000104 0.000117 0.000139 0.000172 0.000219 0.000284 0.000373 0.000493 0.000651 0.000856 0.001120 0.001454 0.001874 0.002394 0.003035 0.003815 0.004757 0.005885 0.007225 0.008805 0.010656 0.012808 0.015296 0.018152 0.021411 0.025109 0.029280 0.033957 0.039174 0.044960 0.051342 0.058343 0.065983 0.074276 0.083231 0.092849 0.103125 0.114049 0.125603 0.137760 0.150488 0.163749 0.177498 0.191686 0.206259 0.221158 0.236325 0.251699 0.267217 0.000160 0.000169 0.000187 0.000216 0.000259 0.000319 0.000400 0.000508 0.000651 0.000836 0.001073 0.001374 0.001752 0.002223 0.002802 0.003509 0.004364 0.005392 0.006618 0.008068 0.009772 0.011761 0.014068 0.016726 0.019772 0.023240 0.027167 0.031587 0.036535 0.042044 0.048144 0.054860 0.062217 0.070233 0.078918 0.088281 0.098321 0.109031 0.120396 0.132394 0.144996 0.158167 0.171864 0.186038 0.200636 0.215601 0.230871 0.246386 0.262079 0.277889 0.000250 0.000263 0.000288 0.000326 0.000380 0.000455 0.000555 0.000686 0.000856 0.001073 0.001348 0.001693 0.002122 0.002651 0.003296 0.004079 0.005022 0.006148 0.007483 0.009057 0.010900 0.013043 0.015522 0.018370 0.021625 0.025322 0.029499 0.034191 0.039433 0.045258 0.051695 0.058771 0.066508 0.074921 0.084023 0.093816 0.104298 0.115459 0.127280 0.139737 0.152797 0.166418 0.180556 0.195157 0.210164 0.225517 0.241151 0.257001 0.273002 0.289087 0.000375 0.000393 0.000426 0.000475 0.000544 0.000637 0.000760 0.000918 0.001120 0.001374 0.001693 0.002089 0.002576 0.003172 0.003894 0.004764 0.005804 0.007041 0.008501 0.010213 0.012211 0.014526 0.017194 0.020252 0.023737 0.027685 0.032135 0.037122 0.042682 0.048848 0.055648 0.063107 0.071248 0.080083 0.089622 0.099866 0.110810 0.122439 0.134733 0.147661 0.161186 0.175264 0.189845 0.204872 0.220284 0.236017 0.252004 0.268177 0.284468 0.300810 0.000544 0.000570 0.000612 0.000675 0.000762 0.000876 0.001025 0.001215 0.001454 0.001752 0.002122 0.002576 0.003131 0.003803 0.004612 0.005580 0.006731 0.008092 0.009691 0.011558 0.013728 0.016234 0.019112 0.022400 0.026136 0.030359 0.035105 0.040413 0.046316 0.052847 0.060035 0.067903 0.076471 0.085752 0.095751 0.106466 0.117890 0.130003 0.142781 0.156189 0.170187 0.184725 0.199749 0.215198 0.231007 0.247110 0.263435 0.279914 0.296476 0.313052 0.000767 0.000802 0.000857 0.000937 0.001044 0.001185 0.001364 0.001591 0.001874 0.002223 0.002651 0.003172 0.003803 0.004562 0.005469 0.006548 0.007824 0.009324 0.011078 0.013118 0.015478 0.018194 0.021304 0.024844 0.028855 0.033376 0.038444 0.044097 0.050369 0.057291 0.064892 0.073194 0.082214 0.091963 0.102442 0.113648 0.125568 0.138179 0.151451 0.165348 0.179821 0.194819 0.210281 0.226145 0.242340 0.258798 0.275444 0.292208 0.309017 0.325803 0.001056 0.001102 0.001173 0.001273 0.001405 0.001576 0.001792 0.002062 0.002394 0.002802 0.003296 0.003894 0.004612 0.005469 0.006488 0.007691 0.009106 0.010762 0.012688 0.014919 0.017490 0.020438 0.023800 0.027617 0.031927 0.036771 0.042186 0.048210 0.054877 0.062217 0.070257 0.079018 0.088513 0.098751 0.109731 0.121444 0.133874 0.146994 0.160769 0.175157 0.190106 0.205559 0.221453 0.237719 0.254286 0.271080 0.288026 0.305050 0.322080 0.339046 0.001424 0.001485 0.001575 0.001699 0.001861 0.002067 0.002326 0.002645 0.003035 0.003509 0.004079 0.004764 0.005580 0.006548 0.007691 0.009034 0.010605 0.012433 0.014551 0.016993 0.019795 0.022997 0.026636 0.030753 0.035387 0.040580 0.046370 0.052792 0.059880 0.067664 0.076167 0.085410 0.095403 0.106150 0.117648 0.129884 0.142836 0.156472 0.170755 0.185634 0.201056 0.216957 0.233271 0.249924 0.266843 0.283950 0.301170 0.318427 0.335648 0.352764 0.001885 0.001964 0.002077 0.002230 0.002427 0.002675 0.002982 0.003359 0.003815 0.004364 0.005022 0.005804 0.006731 0.007824 0.009106 0.010605 0.012348 0.014368 0.016697 0.019371 0.022427 0.025906 0.029846 0.034288 0.039274 0.044843 0.051033 0.057879 0.065415 0.073668 0.082661 0.092408 0.102919 0.114195 0.126227 0.138997 0.152479 0.166637 0.181426 0.196794 0.212680 0.229018 0.245734 0.262755 0.280002 0.297397 0.314862 0.332320 0.349699 0.366930 0.002455 0.002556 0.002697 0.002884 0.003122 0.003419 0.003783 0.004225 0.004757 0.005392 0.006148 0.007041 0.008092 0.009324 0.010762 0.012433 0.014368 0.016598 0.019159 0.022088 0.025422 0.029202 0.033469 0.038263 0.043626 0.049598 0.056215 0.063513 0.071523 0.080270 0.089774 0.100048 0.111096 0.122916 0.135493 0.148807 0.162824 0.177505 0.192798 0.208646 0.224984 0.241740 0.258839 0.276203 0.293751 0.311403 0.329079 0.346705 0.364206 0.381516 0.003151 0.003279 0.003454 0.003682 0.003968 0.004321 0.004750 0.005267 0.005885 0.006618 0.007483 0.008501 0.009691 0.011078 0.012688 0.014551 0.016697 0.019159 0.021975 0.025181 0.028818 0.032925 0.037544 0.042717 0.048485 0.054886 0.061958 0.069734 0.078243 0.087507 0.097544 0.108364 0.119965 0.132341 0.145474 0.159336 0.173889 0.189088 0.204877 0.221192 0.237964 0.255118 0.272575 0.290253 0.308070 0.325944 0.343796 0.361550 0.379135 0.396484 0.003992 0.004154 0.004369 0.004644 0.004986 0.005403 0.005907 0.006510 0.007225 0.008068 0.009057 0.010213 0.011558 0.013118 0.014919 0.016993 0.019371 0.022088 0.025181 0.028690 0.032654 0.037114 0.042113 0.047692 0.053891 0.060750 0.068302 0.076581 0.085612 0.095416 0.106005 0.117386 0.129554 0.142496 0.156189 0.170600 0.185686 0.201394 0.217664 0.234429 0.251613 0.269139 0.286923 0.304881 0.322931 0.340990 0.358979 0.376822 0.394449 0.411797 0.004999 0.005201 0.005463 0.005793 0.006200 0.006692 0.007281 0.007981 0.008805 0.009772 0.010900 0.012211 0.013728 0.015478 0.017490 0.019795 0.022427 0.025422 0.028818 0.032654 0.036971 0.041811 0.047217 0.053229 0.059887 0.067228 0.075287 0.084092 0.093667 0.104030 0.115188 0.127144 0.139888 0.153401 0.167654 0.182610 0.198219 0.214423 0.231156 0.248347 0.265916 0.283781 0.301858 0.320060 0.338303 0.356505 0.374588 0.392477 0.410105 0.427410 0.006194 0.006442 0.006760 0.007155 0.007635 0.008213 0.008899 0.009708 0.010656 0.011761 0.013043 0.014526 0.016234 0.018194 0.020438 0.022997 0.025906 0.029202 0.032925 0.037114 0.041811 0.047059 0.052898 0.059369 0.066512 0.074362 0.082950 0.092303 0.102442 0.113380 0.125120 0.137660 0.150984 0.165069 0.179879 0.195369 0.211487 0.228167 0.245340 0.262928 0.280849 0.299018 0.317348 0.335753 0.354146 0.372447 0.390579 0.408470 0.426054 0.443273 0.007599 0.007903 0.008285 0.008754 0.009320 0.009994 0.010790 0.011722 0.012808 0.014068 0.015522 0.017194 0.019112 0.021304 0.023800 0.026636 0.029846 0.033469 0.037544 0.042113 0.047217 0.052898 0.059197 0.066154 0.073806 0.082188 0.091327 0.101248 0.111967 0.123492 0.135824 0.148952 0.162856 0.177507 0.192863 0.208874 0.225480 0.242612 0.260194 0.278146 0.296382 0.314814 0.333355 0.351916 0.370414 0.388768 0.406902 0.424749 0.442245 0.459336 0.009239 0.009608 0.010065 0.010619 0.011282 0.012066 0.012985 0.014055 0.015296 0.016726 0.018370 0.020252 0.022400 0.024844 0.027617 0.030753 0.034288 0.038263 0.042717 0.047692 0.053229 0.059369 0.066154 0.073621 0.081806 0.090740 0.100450 0.110954 0.122265 0.134387 0.147313 0.161030 0.175509 0.190716 0.206603 0.223113 0.240181 0.257733 0.275690 0.293967 0.312475 0.331126 0.349830 0.368501 0.387055 0.405413 0.423503 0.441259 0.458623 0.475543 0.011139 0.011583 0.012126 0.012778 0.013551 0.014458 0.015515 0.016740 0.018152 0.019772 0.021625 0.023737 0.026136 0.028855 0.031927 0.035387 0.039274 0.043626 0.048485 0.053891 0.059887 0.066512 0.073806 0.081806 0.090545 0.100050 0.110345 0.121444 0.133356 0.146078 0.159599 0.173897 0.188941 0.204687 0.221082 0.238064 0.255563 0.273500 0.291790 0.310348 0.329082 0.347903 0.366721 0.385451 0.404011 0.422324 0.440322 0.457942 0.475130 0.491838 0.013326 0.013857 0.014498 0.015260 0.016157 0.017203 0.018414 0.019810 0.021411 0.023240 0.025322 0.027685 0.030359 0.033376 0.036771 0.040580 0.044843 0.049598 0.054886 0.060750 0.067228 0.074362 0.082188 0.090740 0.100050 0.110141 0.121033 0.132735 0.145250 0.158571 0.172680 0.187548 0.203138 0.219401 0.236277 0.253698 0.271590 0.289869 0.308449 0.327239 0.346149 0.365089 0.383969 0.402707 0.421221 0.439440 0.457298 0.474737 0.491705 0.508162 0.015825 0.016455 0.017208 0.018095 0.019131 0.020332 0.021715 0.023300 0.025109 0.027167 0.029499 0.032135 0.035105 0.038444 0.042186 0.046370 0.051033 0.056215 0.061958 0.068302 0.075287 0.082950 0.091327 0.100450 0.110345 0.121033 0.132528 0.144836 0.157952 0.171864 0.186547 0.201968 0.218081 0.234831 0.252153 0.269975 0.288216 0.306791 0.325610 0.344582 0.363616 0.382620 0.401510 0.420201 0.438620 0.456696 0.474367 0.491580 0.508289 0.524457 0.018665 0.019407 0.020286 0.021313 0.022504 0.023877 0.025449 0.027242 0.029280 0.031587 0.034191 0.037122 0.040413 0.044097 0.048210 0.052792 0.057879 0.063513 0.069734 0.076581 0.084092 0.092303 0.101248 0.110954 0.121444 0.132735 0.144836 0.157745 0.171455 0.185944 0.201183 0.217131 0.233737 0.250939 0.268668 0.286846 0.305389 0.324209 0.343214 0.362313 0.381414 0.400429 0.419273 0.437867 0.456139 0.474023 0.491463 0.508409 0.524820 0.540664 0.021871 0.022741 0.023760 0.024944 0.026307 0.027870 0.029650 0.031671 0.033957 0.036535 0.039433 0.042682 0.046316 0.050369 0.054877 0.059880 0.065415 0.071523 0.078243 0.085612 0.093667 0.102442 0.111967 0.122265 0.133356 0.145250 0.157952 0.171455 0.185743 0.200790 0.216559 0.233003 0.250066 0.267679 0.285769 0.304253 0.323046 0.342056 0.361192 0.380361 0.399473 0.418442 0.437187 0.455631 0.473707 0.491354 0.508520 0.525160 0.541238 0.556727 0.025471 0.026484 0.027660 0.029017 0.030571 0.032341 0.034349 0.036618 0.039174 0.042044 0.045258 0.048848 0.052847 0.057291 0.062217 0.067664 0.073668 0.080270 0.087507 0.095416 0.104030 0.113380 0.123492 0.134387 0.146078 0.158571 0.171864 0.185944 0.200790 0.216368 0.232635 0.249539 0.267015 0.284993 0.303393 0.322131 0.341118 0.360261 0.379469 0.398650 0.417717 0.436585 0.455177 0.473422 0.491255 0.508622 0.525473 0.541771 0.557485 0.572590 0.029490 0.030662 0.032012 0.033560 0.035322 0.037320 0.039575 0.042113 0.044960 0.048144 0.051695 0.055648 0.060035 0.064892 0.070257 0.076167 0.082661 0.089774 0.097544 0.106005 0.115188 0.125120 0.135824 0.147313 0.159599 0.172680 0.186547 0.201183 0.216559 0.232635 0.249363 0.266682 0.284525 0.302816 0.321472 0.340407 0.359528 0.378745 0.397967 0.417102 0.436067 0.454781 0.473170 0.491167 0.508714 0.525759 0.542261 0.558185 0.573505 0.588203 0.033954 0.035300 0.036843 0.038599 0.040589 0.042833 0.045356 0.048183 0.051342 0.054860 0.058771 0.063107 0.067903 0.073194 0.079018 0.085410 0.092408 0.100048 0.108364 0.117386 0.127144 0.137660 0.148952 0.161030 0.173897 0.187548 0.201968 0.217131 0.233003 0.249539 0.266682 0.284368 0.302526 0.321075 0.339929 0.359000 0.378197 0.397429 0.416604 0.435637 0.454446 0.472953 0.491090 0.508795 0.526014 0.542702 0.558821 0.574343 0.589246 0.603516 0.038884 0.040423 0.042175 0.044159 0.046395 0.048906 0.051717 0.054853 0.058343 0.062217 0.066508 0.071248 0.076471 0.082214 0.088513 0.095403 0.102919 0.111096 0.119965 0.129554 0.139888 0.150984 0.162856 0.175509 0.188941 0.203138 0.218081 0.233737 0.250066 0.267015 0.284525 0.302526 0.320942 0.339689 0.358682 0.377829 0.397041 0.416227 0.435299 0.454173 0.472773 0.491025 0.508865 0.526237 0.543091 0.559389 0.575098 0.590194 0.604659 0.618484 0.044302 0.046051 0.048031 0.050260 0.052762 0.055559 0.058676 0.062141 0.065983 0.070233 0.074921 0.080083 0.085752 0.091963 0.098751 0.106150 0.114195 0.122916 0.132341 0.142496 0.153401 0.165069 0.177507 0.190716 0.204687 0.219401 0.234831 0.250939 0.267679 0.284993 0.302816 0.321075 0.339689 0.358575 0.377645 0.396807 0.415973 0.435055 0.453967 0.472631 0.490972 0.508923 0.526425 0.543427 0.559885 0.575765 0.591040 0.605689 0.619701 0.633070 0.050225 0.052202 0.054427 0.056922 0.059707 0.062808 0.066252 0.070064 0.074276 0.078918 0.084023 0.089622 0.095751 0.102442 0.109731 0.117648 0.126227 0.135493 0.145474 0.156189 0.167654 0.179879 0.192863 0.206603 0.221082 0.236277 0.252153 0.268668 0.285769 0.303393 0.321472 0.339929 0.358682 0.377645 0.396729 0.415846 0.434907 0.453829 0.472529 0.490932 0.508969 0.526578 0.543705 0.560305 0.576339 0.591778 0.606599 0.620787 0.634333 0.647236 0.056669 0.058891 0.061380 0.064156 0.067244 0.070667 0.074454 0.078632 0.083231 0.088281 0.093816 0.099866 0.106466 0.113648 0.121444 0.129884 0.138997 0.148807 0.159336 0.170600 0.182610 0.195369 0.208874 0.223113 0.238064 0.253698 0.269975 0.286846 0.304253 0.322131 0.340407 0.359000 0.377829 0.396807 0.415846 0.434858 0.453759 0.472467 0.490905 0.509002 0.526694 0.543924 0.560645 0.576815 0.592402 0.607380 0.621732 0.635448 0.648521 0.660954 0.063645 0.066130 0.068898 0.071974 0.075381 0.079143 0.083290 0.087848 0.092849 0.098321 0.104298 0.110810 0.117890 0.125568 0.133874 0.142836 0.152479 0.162824 0.173889 0.185686 0.198219 0.211487 0.225480 0.240181 0.255563 0.271590 0.288216 0.305389 0.323046 0.341118 0.359528 0.378197 0.397041 0.415973 0.434907 0.453759 0.472446 0.490891 0.509022 0.526771 0.544082 0.560902 0.577189 0.592907 0.608028 0.622532 0.636405 0.649640 0.662237 0.674197 0.071161 0.073924 0.076989 0.080380 0.084121 0.088238 0.092759 0.097711 0.103125 0.109031 0.115459 0.122439 0.130003 0.138179 0.146994 0.156472 0.166637 0.177505 0.189088 0.201394 0.214423 0.228167 0.242612 0.257733 0.273500 0.289869 0.306791 0.324209 0.342056 0.360261 0.378745 0.397429 0.416227 0.435055 0.453829 0.472467 0.490891 0.509028 0.526810 0.544177 0.561075 0.577459 0.593289 0.608537 0.623178 0.637198 0.650586 0.663338 0.675457 0.686948 0.079219 0.082276 0.085653 0.089374 0.093463 0.097948 0.102855 0.108212 0.114049 0.120396 0.127280 0.134733 0.142781 0.151451 0.160769 0.170755 0.181426 0.192798 0.204877 0.217664 0.231156 0.245340 0.260194 0.275690 0.291790 0.308449 0.325610 0.343214 0.361192 0.379469 0.397967 0.416604 0.435299 0.453967 0.472529 0.490905 0.509022 0.526810 0.544209 0.561162 0.577621 0.593546 0.608904 0.623668 0.637821 0.651350 0.664250 0.676520 0.688163 0.699190 0.087820 0.091184 0.094886 0.098949 0.103399 0.108262 0.113565 0.119336 0.125603 0.132394 0.139737 0.147661 0.156189 0.165348 0.175157 0.185634 0.196794 0.208646 0.221192 0.234429 0.248347 0.262928 0.278146 0.293967 0.310348 0.327239 0.344582 0.362313 0.380361 0.398650 0.417102 0.435637 0.454173 0.472631 0.490932 0.509002 0.526771 0.544177 0.561162 0.577676 0.593675 0.609125 0.623997 0.638269 0.651929 0.664966 0.677379 0.689169 0.700344 0.710913 0.096956 0.100640 0.104678 0.109095 0.113915 0.119165 0.124871 0.131060 0.137760 0.144996 0.152797 0.161186 0.170187 0.179821 0.190106 0.201056 0.212680 0.224984 0.237964 0.251613 0.265916 0.280849 0.296382 0.312475 0.329082 0.346149 0.363616 0.381414 0.399473 0.417717 0.436067 0.454446 0.472773 0.490972 0.508969 0.526694 0.544082 0.561075 0.577621 0.593675 0.609199 0.624161 0.638540 0.652317 0.665481 0.678029 0.689959 0.701276 0.711990 0.722111 0.106618 0.110632 0.115016 0.119795 0.124992 0.130634 0.136747 0.143356 0.150488 0.158167 0.166418 0.175264 0.184725 0.194819 0.205559 0.216957 0.229018 0.241740 0.255118 0.269139 0.283781 0.299018 0.314814 0.331126 0.347903 0.365089 0.382620 0.400429 0.418442 0.436585 0.454781 0.472953 0.491025 0.508923 0.526578 0.543924 0.560902 0.577459 0.593546 0.609125 0.624161 0.638630 0.652512 0.665792 0.678465 0.690527 0.701981 0.712835 0.723098 0.732783 0.116788 0.121141 0.125878 0.131025 0.136604 0.142641 0.149162 0.156189 0.163749 0.171864 0.180556 0.189845 0.199749 0.210281 0.221453 0.233271 0.245734 0.258839 0.272575 0.286923 0.301858 0.317348 0.333355 0.349830 0.366721 0.383969 0.401510 0.419273 0.437187 0.455177 0.473170 0.491090 0.508865 0.526425 0.543705 0.560645 0.577189 0.593289 0.608904 0.623997 0.638540 0.652512 0.665896 0.678683 0.690869 0.702454 0.713442 0.723843 0.733668 0.742931 0.127448 0.132145 0.137240 0.142758 0.148720 0.155152 0.162077 0.169518 0.177498 0.186038 0.195157 0.204872 0.215198 0.226145 0.237719 0.249924 0.262755 0.276203 0.290253 0.304881 0.320060 0.335753 0.351916 0.368501 0.385451 0.402707 0.420201 0.437867 0.455631 0.473422 0.491167 0.508795 0.526237 0.543427 0.560305 0.576815 0.592907 0.608537 0.623668 0.638269 0.652317 0.665792 0.678683 0.690983 0.702691 0.713808 0.724342 0.734303 0.743703 0.752558 0.138572 0.143617 0.149072 0.154961 0.161305 0.168128 0.175452 0.183298 0.191686 0.200636 0.210164 0.220284 0.231007 0.242340 0.254286 0.266843 0.280002 0.293751 0.308070 0.322931 0.338303 0.354146 0.370414 0.387055 0.404011 0.421221 0.438620 0.456139 0.473707 0.491255 0.508714 0.526014 0.543091 0.559885 0.576339 0.592402 0.608028 0.623178 0.637821 0.651929 0.665481 0.678465 0.690869 0.702691 0.713930 0.724593 0.734686 0.744221 0.753212 0.761674 0.150130 0.155524 0.161339 0.167596 0.174318 0.181525 0.189238 0.197476 0.206259 0.215601 0.225517 0.236017 0.247110 0.258798 0.271080 0.283950 0.297397 0.311403 0.325944 0.340990 0.356505 0.372447 0.388768 0.405413 0.422324 0.439440 0.456696 0.474023 0.491354 0.508622 0.525759 0.542702 0.559389 0.575765 0.591778 0.607380 0.622532 0.637198 0.651350 0.664966 0.678029 0.690527 0.702454 0.713808 0.724593 0.734814 0.744480 0.753605 0.762202 0.770288 0.162091 0.167832 0.174002 0.180623 0.187714 0.195295 0.203385 0.212000 0.221158 0.230871 0.241151 0.252004 0.263435 0.275444 0.288026 0.301170 0.314862 0.329079 0.343796 0.358979 0.374588 0.390579 0.406902 0.423503 0.440322 0.457298 0.474367 0.491463 0.508520 0.525473 0.542261 0.558821 0.575098 0.591040 0.606599 0.621732 0.636405 0.650586 0.664250 0.677379 0.689959 0.701981 0.713442 0.724342 0.734686 0.744480 0.753737 0.762467 0.770687 0.778413 0.174416 0.180500 0.187020 0.193995 0.201445 0.209387 0.217838 0.226813 0.236325 0.246386 0.257001 0.268177 0.279914 0.292208 0.305050 0.318427 0.332320 0.346705 0.361550 0.376822 0.392477 0.408470 0.424749 0.441259 0.457942 0.474737 0.491580 0.508409 0.525160 0.541771 0.558185 0.574343 0.590194 0.605689 0.620787 0.635448 0.649640 0.663338 0.676520 0.689169 0.701276 0.712835 0.723843 0.734303 0.744221 0.753605 0.762467 0.770821 0.778680 0.786063 0.187066 0.193486 0.200347 0.207667 0.215462 0.223749 0.232543 0.241856 0.251699 0.262079 0.273002 0.284468 0.296476 0.309017 0.322080 0.335648 0.349699 0.364206 0.379135 0.394449 0.410105 0.426054 0.442245 0.458623 0.475130 0.491705 0.508289 0.524820 0.541238 0.557485 0.573505 0.589246 0.604659 0.619701 0.634333 0.648521 0.662237 0.675457 0.688163 0.700344 0.711990 0.723098 0.733668 0.743703 0.753212 0.762202 0.770687 0.778680 0.786197 0.793253 0.200000 0.206747 0.213937 0.221587 0.229712 0.238326 0.247442 0.257069 0.267217 0.277889 0.289087 0.300810 0.313052 0.325803 0.339046 0.352764 0.366930 0.381516 0.396484 0.411797 0.427410 0.443273 0.459336 0.475543 0.491838 0.508162 0.524457 0.540664 0.556727 0.572590 0.588203 0.603516 0.618484 0.633070 0.647236 0.660954 0.674197 0.686948 0.699190 0.710913 0.722111 0.732783 0.742931 0.752558 0.761674 0.770288 0.778413 0.786063 0.793253 0.800000 0.000000 0.000000 0.000001 0.000002 0.000006 0.000015 0.000032 0.000060 0.000104 0.000169 0.000263 0.000393 0.000570 0.000802 0.001102 0.001485 0.001964 0.002556 0.003279 0.004154 0.005201 0.006442 0.007903 0.009608 0.011583 0.013857 0.016455 0.019407 0.022741 0.026484 0.030662 0.035300 0.040423 0.046051 0.052202 0.058891 0.066130 0.073924 0.082276 0.091184 0.100640 0.110632 0.121141 0.132145 0.143617 0.155524 0.167832 0.180500 0.193486 0.206747 0.000000 0.000000 0.000001 0.000003 0.000007 0.000017 0.000035 0.000064 0.000110 0.000179 0.000277 0.000413 0.000596 0.000838 0.001151 0.001549 0.002047 0.002663 0.003415 0.004325 0.005413 0.006705 0.008224 0.009998 0.012053 0.014418 0.017121 0.020193 0.023661 0.027554 0.031900 0.036725 0.042051 0.047901 0.054293 0.061240 0.068755 0.076842 0.085503 0.094733 0.104525 0.114861 0.125724 0.137087 0.148920 0.161189 0.173855 0.186877 0.200208 0.213803 0.000001 0.000001 0.000002 0.000004 0.000010 0.000022 0.000042 0.000074 0.000124 0.000198 0.000303 0.000447 0.000641 0.000896 0.001226 0.001643 0.002166 0.002811 0.003599 0.004551 0.005690 0.007039 0.008627 0.010479 0.012625 0.015094 0.017916 0.021120 0.024738 0.028798 0.033328 0.038355 0.043902 0.049993 0.056644 0.063869 0.071679 0.080078 0.089066 0.098637 0.108781 0.119479 0.130710 0.142446 0.154653 0.167294 0.180327 0.193708 0.207389 0.221320 0.000002 0.000003 0.000004 0.000008 0.000016 0.000030 0.000054 0.000091 0.000147 0.000228 0.000343 0.000499 0.000707 0.000980 0.001330 0.001773 0.002326 0.003007 0.003838 0.004840 0.006037 0.007455 0.009121 0.011063 0.013312 0.015898 0.018852 0.022204 0.025987 0.030230 0.034961 0.040209 0.045997 0.052347 0.059277 0.066800 0.074925 0.083656 0.092990 0.102921 0.113434 0.124511 0.136125 0.148246 0.160838 0.173860 0.187268 0.201013 0.215045 0.229313 0.000006 0.000007 0.000010 0.000016 0.000027 0.000045 0.000074 0.000117 0.000182 0.000273 0.000400 0.000571 0.000798 0.001092 0.001469 0.001943 0.002532 0.003257 0.004138 0.005199 0.006464 0.007960 0.009716 0.011761 0.014126 0.016843 0.019944 0.023460 0.027425 0.031869 0.036821 0.042309 0.048358 0.054988 0.062217 0.070059 0.078519 0.087602 0.097302 0.107611 0.118511 0.129981 0.141993 0.154512 0.167499 0.180910 0.194698 0.208811 0.223196 0.237798 0.000015 0.000017 0.000022 0.000030 0.000045 0.000068 0.000104 0.000156 0.000231 0.000336 0.000478 0.000668 0.000918 0.001239 0.001647 0.002159 0.002792 0.003568 0.004508 0.005637 0.006980 0.008566 0.010424 0.012585 0.015081 0.017944 0.021208 0.024907 0.029072 0.033736 0.038929 0.044678 0.051008 0.057940 0.065490 0.073671 0.082489 0.091943 0.102029 0.112734 0.124039 0.135918 0.148341 0.161269 0.174660 0.188467 0.202638 0.217120 0.231856 0.246788 0.000032 0.000035 0.000042 0.000054 0.000074 0.000104 0.000148 0.000211 0.000300 0.000421 0.000583 0.000796 0.001073 0.001427 0.001874 0.002430 0.003114 0.003950 0.004958 0.006166 0.007599 0.009287 0.011261 0.013552 0.016193 0.019220 0.022665 0.026564 0.030949 0.035854 0.041308 0.047340 0.053973 0.061229 0.069123 0.077666 0.086862 0.096709 0.107200 0.118319 0.130045 0.142348 0.155193 0.168540 0.182343 0.196550 0.211107 0.225956 0.241040 0.256297 0.000060 0.000064 0.000074 0.000091 0.000117 0.000156 0.000211 0.000288 0.000393 0.000534 0.000720 0.000962 0.001272 0.001664 0.002155 0.002763 0.003509 0.004413 0.005500 0.006798 0.008333 0.010137 0.012240 0.014677 0.017482 0.020689 0.024335 0.028453 0.033080 0.038247 0.043985 0.050322 0.057282 0.064885 0.073145 0.082072 0.091668 0.101929 0.112844 0.124396 0.136557 0.149297 0.162577 0.176351 0.190570 0.205179 0.220121 0.235336 0.250760 0.266332 0.000104 0.000110 0.000124 0.000147 0.000182 0.000231 0.000300 0.000393 0.000518 0.000683 0.000897 0.001172 0.001522 0.001960 0.002503 0.003172 0.003986 0.004970 0.006148 0.007547 0.009199 0.011132 0.013382 0.015982 0.018967 0.022374 0.026240 0.030600 0.035489 0.040941 0.046987 0.053653 0.060963 0.068937 0.077588 0.086921 0.096939 0.107634 0.118993 0.130992 0.143605 0.156793 0.170516 0.184723 0.199362 0.214374 0.229698 0.245270 0.261026 0.276902 0.000169 0.000179 0.000198 0.000228 0.000273 0.000336 0.000421 0.000534 0.000683 0.000876 0.001124 0.001439 0.001834 0.002325 0.002929 0.003668 0.004562 0.005636 0.006916 0.008432 0.010213 0.012293 0.014705 0.017486 0.020672 0.024300 0.028407 0.033031 0.038207 0.043967 0.050344 0.057364 0.065050 0.073419 0.082483 0.092247 0.102708 0.113857 0.125675 0.138139 0.151214 0.164862 0.179034 0.193678 0.208737 0.224148 0.239848 0.255769 0.271846 0.288010 0.000263 0.000277 0.000303 0.000343 0.000400 0.000478 0.000583 0.000720 0.000897 0.001124 0.001412 0.001772 0.002220 0.002772 0.003447 0.004265 0.005250 0.006427 0.007824 0.009470 0.011397 0.013640 0.016234 0.019215 0.022621 0.026492 0.030864 0.035775 0.041261 0.047356 0.054090 0.061490 0.069576 0.078365 0.087866 0.098081 0.109006 0.120627 0.132923 0.145864 0.159414 0.173527 0.188154 0.203236 0.218712 0.234517 0.250583 0.266840 0.283221 0.299656 0.000393 0.000413 0.000447 0.000499 0.000571 0.000668 0.000796 0.000962 0.001172 0.001439 0.001772 0.002186 0.002695 0.003317 0.004072 0.004982 0.006070 0.007363 0.008891 0.010683 0.012774 0.015198 0.017992 0.021195 0.024844 0.028980 0.033641 0.038864 0.044687 0.051142 0.058259 0.066063 0.074575 0.083808 0.093770 0.104459 0.115868 0.127978 0.140766 0.154196 0.168229 0.182813 0.197894 0.213412 0.229299 0.245488 0.261908 0.278486 0.295152 0.311837 0.000570 0.000596 0.000641 0.000707 0.000798 0.000918 0.001073 0.001272 0.001522 0.001834 0.002220 0.002695 0.003275 0.003977 0.004824 0.005836 0.007041 0.008465 0.010139 0.012095 0.014368 0.016993 0.020009 0.023455 0.027371 0.031796 0.036771 0.042333 0.048518 0.055359 0.062886 0.071121 0.080084 0.089786 0.100231 0.111415 0.123325 0.135941 0.149233 0.163162 0.177682 0.192739 0.208274 0.224220 0.240510 0.257069 0.273826 0.290705 0.307634 0.324543 0.000802 0.000838 0.000896 0.000980 0.001092 0.001239 0.001427 0.001664 0.001960 0.002325 0.002772 0.003317 0.003977 0.004771 0.005721 0.006851 0.008186 0.009757 0.011595 0.013733 0.016207 0.019054 0.022314 0.026027 0.030234 0.034975 0.040289 0.046217 0.052792 0.060047 0.068009 0.076702 0.086141 0.096335 0.107285 0.118982 0.131411 0.144545 0.158350 0.172784 0.187794 0.203322 0.219304 0.235671 0.252348 0.269261 0.286334 0.303491 0.320658 0.337763 0.001102 0.001151 0.001226 0.001330 0.001469 0.001647 0.001874 0.002155 0.002503 0.002929 0.003447 0.004072 0.004824 0.005721 0.006787 0.008048 0.009531 0.011266 0.013285 0.015625 0.018321 0.021413 0.024941 0.028946 0.033469 0.038552 0.044234 0.050554 0.057546 0.065242 0.073668 0.082844 0.092783 0.103491 0.114965 0.127193 0.140154 0.153817 0.168143 0.183084 0.198582 0.214576 0.230995 0.247767 0.264815 0.282061 0.299426 0.316833 0.334208 0.351479 0.001485 0.001549 0.001643 0.001773 0.001943 0.002159 0.002430 0.002763 0.003172 0.003668 0.004265 0.004982 0.005836 0.006851 0.008048 0.009456 0.011102 0.013019 0.015241 0.017803 0.020745 0.024105 0.027925 0.032248 0.037114 0.042566 0.048644 0.055384 0.062822 0.070987 0.079902 0.089586 0.100048 0.111291 0.123307 0.136080 0.149584 0.163784 0.178633 0.194079 0.210060 0.226509 0.243351 0.260511 0.277907 0.295459 0.313088 0.330715 0.348265 0.365667 0.001964 0.002047 0.002166 0.002326 0.002532 0.002792 0.003114 0.003509 0.003986 