# vtk DataFile Version 3.0
vtk output
ASCII
DATASET STRUCTURED_POINTS
DIMENSIONS 50 50 50
SPACING 0.020408 0.000000 0.020408
ORIGIN 0.000000 0.000000 0.000000
POINT_DATA 125000
SCALARS RTData float
LOOKUP_TABLE default
0.000000 0.000000 0.000004 0.000022 0.000075 0.000200 0.000451 0.000909 0.001691 0.002961 0.004940 0.007930 0.012329 0.018657 0.027578 0.039920 0.056679 0.079004 0.108132 0.145260 0.191341 0.246811 0.311287 0.383351 0.460516 0.539484 0.616649 0.688713 0.753189 0.808659 0.854740 0.891868 0.920996 0.943321 0.960080 0.972422 0.981343 0.987671 0.992070 0.995060 0.997039 0.998309 0.999091 0.999549 0.999800 0.999925 0.999978 0.999996 1.000000 1.000000 0.000000 0.000000 0.000004 0.000022 0.000075 0.000200 0.000451 0.000909 0.001691 0.002961 0.004940 0.007930 0.012329 0.018657 0.027578 0.039920 0.056679 0.079004 0.108132 0.145260 0.191341 0.246811 0.311287 0.383351 0.460516 0.539484 0.616649 0.688713 0.753189 0.808659 0.854740 0.891868 0.920996 0.943321 0.960080 0.972422 0.981343 0.987671 0.992070 0.995060 0.997039 0.998309 0.999091 0.999549 0.999800 0.999925 0.999978 0.999996 1.000000 1.000000 0.000000 0.000000 0.000004 0.000022 0.000075 0.000200 0.000451 0.000909 0.001691 0.002961 0.004940 0.007930 0.012329 0.018657 0.027578 0.039920 0.056679 0.079004 0.108132 0.145260 0.191341 0.246811 0.311287 0.383351 0.460516 0.539484 0.616649 0.688713 0.753189 0.808659 0.854740 0.891868 0.920996 0.943321 0.960080 0.972422 0.981343 0.987671 0.992070 0.995060 0.997039 0.998309 0.999091 0.999549 0.999800 0.999925 0.999978 0.999996 1.000000 1.000000 0.000000 0.000000 0.000004 0.000022 0.000075 0.000200 0.000451 0.000909 0.001691 0.002961 0.004940 0.007930 0.012329 0.018657 0.027578 0.039920 0.056679 0.079004 0.108132 0.145260 0.191341 0.246811 0.311287 0.383351 0.460516 0.539484 0.616649 0.688713 0.753189 0.808659 0.854740 0.891868 0.920996 0.943321 0.960080 0.972422 0.981343 0.987671 0.992070 0.995060 0.997039 0.998309 0.999091 0.999549 0.999800 0.999925 0.999978 0.999996 1.000000 1.000000 0.000000 0.000000 0.000004 0.000022 0.000075 0.000200 0.000451 0.000909 0.001691 0.002961 0.004940 0.007930 0.012329 0.018657 0.027578 0.039920 0.056679 0.079004 0.108132 0.145260 0.191341 0.246811 0.311287 0.383351 0.460516 0.539484 0.616649 0.688713 0.753189 0.808659 0.854740 0.891868 0.920996 0.943321 0.960080 0.972422 0.981343 0.987671 0.992070 0.995060 0.997039 0.998309 0.999091 0.999549 0.999800 0.999925 0.999978 0.999996 1.000000 1.000000 0.000000 0.000000 0.000004 0.000022 0.000075 0.000200 0.000451 0.000909 0.001691 0.002961 0.004940 0.007930 0.012329 0.018657 0.027578 0.039920 0.056679 0.079004 0.108132 0.145260 0.191341 0.246811 0.311287 0.383351 0.460516 0.539484 0.616649 0.688713 0.753189 0.808659 0.854740 0.891868 0.920996 0.943321 0.960080 0.972422 0.981343 0.987671 0.992070 0.995060 0.997039 0.998309 0.999091 0.999549 0.999800 0.999925 0.999978 0.999996 1.000000 1.000000 0.000000 0.000000 0.000004 0.000022 0.000075 0.000200 0.000451 0.000909 0.001691 0.002961 0.004940 0.007930 0.012329 0.018657 0.027578 0.039920 0.056679 0.079004 0.108132 0.145260 0.191341 0.246811 0.311287 0.383351 0.460516 0.539484 0.616649 0.688713 0.753189 0.808659 0.854740 0.891868 0.920996 0.943321 0.960080 0.972422 0.981343 0.987671 0.992070 0.995060 0.997039 0.998309 0.999091 0.999549 0.999800 0.999925 0.999978 0.999996 1.000000 1.000000 0.000000 0.000000 0.000004 0.000022 0.000075 0.000200 0.000451 0.000909 0.001691 0.002961 0.004940 0.007930 0.012329 0.018657 0.027578 0.039920 0.056679 0.079004 0.108132 0.145260 0.191341 0.246811 0.311287 0.383351 0.460516 0.539484 0.616649 0.688713 0.753189 0.808659 0.854740 0.891868 0.920996 0.943321 0.960080 0.972422 0.981343 0.987671 0.992070 0.995060 0.997039 0.998309 0.999091 0.999549 0.999800 0.999925 0.999978 0.999996 1.000000 1.000000 0.000000 0.000000 0.000004 0.000022 0.000075 0.000200 0.000451 0.000909 0.001691 0.002961 0.004940 0.007930 0.012329 0.018657 0.027578 0.039920 0.056679 0.079004 0.108132 0.145260 0.191341 0.246811 0.311287 0.383351 0.460516 0.539484 0.616649 0.688713 0.753189 0.808659 0.854740 0.891868 0.920996 0.943321 0.960080 0.972422 0.981343 0.987671 0.992070 0.995060 0.997039 0.998309 0.999091 0.999549 0.999800 0.999925 0.999978 0.999996 1.000000 1.000000 0.000000 0.000000 0.000004 0.000022 0.000075 0.000200 0.000451 0.000909 0.001691 0.002961 0.004940 0.007930 0.012329 0.018657 0.027578 0.039920 0.056679 0.079004 0.108132 0.145260 0.191341 0.246811 0.311287 0.383351 0.460516 0.539484 0.616649 0.688713 0.753189 0.808659 0.854740 0.891868 0.920996 0.943321 0.960080 0.972422 0.981343 0.987671 0.992070 0.995060 0.997039 0.998309 0.999091 0.999549 0.999800 0.999925 0.999978 0.999996 1.000000 1.000000 0.000000 0.000000 0.000004 0.000022 0.000075 0.000200 0.000451 0.000909 0.001691 0.002961 0.004940 0.007930 0.012329 0.018657 0.027578 0.039920 0.056679 0.079004 0.108132 0.145260 0.191341 0.246811 0.311287 0.383351 0.460516 0.539484 0.616649 0.688713 0.753189 0.808659 0.854740 0.891868 0.920996 0.943321 0.960080 0.972422 0.981343 0.987671 0.992070 0.995060 0.997039 0.998309 0.999091 0.999549 0.999800 0.999925 0.999978 0.999996 1.000000 1.000000 0.000000 0.000000 0.000004 0.000022 0.000075 0.000200 0.000451 0.000909 0.001691 0.002961 0.004940 0.007930 0.012329 0.018657 0.027578 0.039920 0.056679 0.079004 0.108132 0.145260 0.191341 0.246811 0.311287 0.383351 0.460516 0.539484 0.616649 0.688713 0.753189 0.808659 0.854740 0.891868 0.920996 0.943321 0.960080 0.972422 0.981343 0.987671 0.992070 0.995060 0.997039 0.998309 0.999091 0.999549 0.999800 0.999925 0.999978 0.999996 1.000000 1.000000 0.000000 0.000000 0.000004 0.000022 0.000075 0.000200 0.000451 0.000909 0.001691 0.002961 0.004940 0.007930 0.012329 0.018657 0.027578 0.039920 0.056679 0.079004 0.108132 0.145260 0.191341 0.246811 0.311287 0.383351 0.460516 0.539484 0.616649 0.688713 0.753189 0.808659 0.854740 0.891868 0.920996 0.943321 0.960080 0.972422 0.981343 0.987671 0.992070 0.995060 0.997039 0.998309 0.999091 0.999549 0.999800 0.999925 0.999978 0.999996 1.000000 1.000000 0.000000 0.000000 0.000004 0.000022 0.000075 0.000200 0.000451 0.000909 0.001691 0.002961 0.004940 0.007930 0.012329 0.018657 0.027578 0.039920 0.056679 0.079004 0.108132 0.145260 0.191341 0.246811 0.311287 0.383351 0.460516 0.539484 0.616649 0.688713 0.753189 0.808659 0.854740 0.891868 0.920996 0.943321 0.960080 0.972422 0.981343 0.987671 0.992070 0.995060 0.997039 0.998309 0.999091 0.999549 0.999800 0.999925 0.999978 0.999996 1.000000 1.000000 0.000000 0.000000 0.000004 0.000022 0.000075 0.000200 0.000451 0.000909 0.001691 0.002961 0.004940 0.007930 0.012329 0.018657 0.027578 0.039920 0.056679 0.079004 0.108132 0.145260 0.191341 0.246811 0.311287 0.383351 0.460516 0.539484 0.616649 0.688713 0.753189 0.808659 0.854740 0.891868 0.920996 0.943321 0.960080 0.972422 0.981343 0.987671 0.992070 0.995060 0.997039 0.998309 0.999091 0.999549 0.999800 0.999925 0.999978 0.999996 1.000000 1.000000 0.000000 0.000000 0.000004 0.000022 0.000075 0.000200 0.000451 0.000909 0.001691 0.002961 0.004940 0.007930 0.012329 0.018657 0.027578 0.039920 0.056679 0.079004 0.108132 0.145260 0.191341 0.246811 0.311287 0.383351 0.460516 0.539484 0.616649 0.688713 0.753189 0.808659 0.854740 0.891868 0.920996 0.943321 0.960080 0.972422 0.981343 0.987671 0.992070 0.995060 0.997039 0.998309 0.999091 0.999549 0.999800 0.999925 0.999978 0.999996 1.000000 1.000000 0.000000 0.000000 0.000004 0.000022 0.000075 0.000200 0.000451 0.000909 0.001691 0.002961 0.004940 0.007930 0.012329 0.018657 0.027578 0.039920 0.056679 0.079004 0.108132 0.145260 0.191341 0.246811 0.311287 0.383351 0.460516 0.539484 0.616649 0.688713 0.753189 0.808659 0.854740 0.891868 0.920996 0.943321 0.960080 0.972422 0.981343 0.987671 0.992070 0.995060 0.997039 0.998309 0.999091 0.999549 0.999800 0.999925 0.999978 0.999996 1.000000 1.000000 0.000000 0.000000 0.000004 0.000022 0.000075 0.000200 0.000451 0.000909 0.001691 0.002961 0.004940 0.007930 0.012329 0.018657 0.027578 0.039920 0.056679 0.079004 0.108132 0.145260 0.191341 0.246811 0.311287 0.383351 0.460516 0.539484 0.616649 0.688713 0.753189 0.808659 0.854740 0.891868 0.920996 0.943321 0.960080 0.972422 0.981343 0.987671 0.992070 0.995060 0.997039 0.998309 0.999091 0.999549 0.999800 0.999925 0.999978 0.999996 1.000000 1.000000 0.000000 0.000000 0.000004 0.000022 0.000075 0.000200 0.000451 0.000909 0.001691 0.002961 0.004940 0.007930 0.012329 0.018657 0.027578 0.039920 0.056679 0.079004 0.108132 0.145260 0.191341 0.246811 0.311287 0.383351 0.460516 0.539484 0.616649 0.688713 0.753189 0.808659 0.854740 0.891868 0.920996 0.943321 0.960080 0.972422 0.981343 0.987671 0.992070 0.995060 0.997039 0.998309 0.999091 0.999549 0.999800 0.999925 0.999978 0.999996 1.000000 1.000000 0.000000 0.000000 0.000004 0.000022 0.000075 0.000200 0.000451 0.000909 0.001691 0.002961 0.004940 0.007930 0.012329 0.018657 0.027578 0.039920 0.056679 0.079004 0.108132 0.145260 0.191341 0.246811 0.311287 0.383351 0.460516 0.539484 0.616649 0.688713 0.753189 0.808659 0.854740 0.891868 0.920996 0.943321 0.960080 0.972422 0.981343 0.987671 0.992070 0.995060 0.997039 0.998309 0.999091 0.999549 0.999800 0.999925 0.999978 0.999996 1.000000 1.000000 0.000000 0.000000 0.000004 0.000022 0.000075 0.000200 0.000451 0.000909 0.001691 0.002961 0.004940 0.007930 0.012329 0.018657 0.027578 0.039920 0.056679 0.079004 0.108132 0.145260 0.191341 0.246811 0.311287 0.383351 0.460516 0.539484 0.616649 0.688713 0.753189 0.808659 0.854740 0.891868 0.920996 0.943321 0.960080 0.972422 0.981343 0.987671 0.992070 0.995060 0.997039 0.998309 0.999091 0.999549 0.999800 0.999925 0.999978 0.999996 1.000000 1.000000 0.000000 0.000000 0.000004 0.000022 0.000075 0.000200 0.000451 0.000909 0.001691 0.002961 0.004940 0.007930 0.012329 0.018657 0.027578 0.039920 0.056679 0.079004 0.108132 0.145260 0.191341 0.246811 0.311287 0.383351 0.460516 0.539484 0.616649 0.688713 0.753189 0.808659 0.854740 0.891868 0.920996 0.943321 0.960080 0.972422 0.981343 0.987671 0.992070 0.995060 0.997039 0.998309 0.999091 0.999549 0.999800 0.999925 0.999978 0.999996 1.000000 1.000000 0.000000 0.000000 0.000004 0.000022 0.000075 0.000200 0.000451 0.000909 0.001691 0.002961 0.004940 0.007930 0.012329 0.018657 0.027578 0.039920 0.056679 0.079004 0.108132 0.145260 0.191341 0.246811 0.311287 0.383351 0.460516 0.539484 0.616649 0.688713 0.753189 0.808659 0.854740 0.891868 0.920996 0.943321 0.960080 0.972422 0.981343 0.987671 0.992070 0.995060 0.997039 0.998309 0.999091 0.999549 0.999800 0.999925 0.999978 0.999996 1.000000 1.000000 0.000000 0.000000 0.000004 0.000022 0.000075 0.000200 0.000451 0.000909 0.001691 0.002961 0.004940 0.007930 0.012329 0.018657 0.027578 0.039920 0.056679 0.079004 0.108132 0.145260 0.191341 0.246811 0.311287 0.383351 0.460516 0.539484 0.616649 0.688713 0.753189 0.808659 0.854740 0.891868 0.920996 0.943321 0.960080 0.972422 0.981343 0.987671 0.992070 0.995060 0.997039 0.998309 0.999091 0.999549 0.999800 0.999925 0.999978 0.999996 1.000000 1.000000 0.000000 0.000000 0.000004 0.000022 0.000075 0.000200 0.000451 0.000909 0.001691 0.002961 0.004940 0.007930 0.012329 0.018657 0.027578 0.039920 0.056679 0.079004 0.108132 0.145260 0.191341 0.246811 0.311287 0.383351 0.460516 0.539484 0.616649 0.688713 0.753189 0.808659 0.854740 0.891868 0.920996 0.943321 0.960080 0.972422 0.981343 0.987671 0.992070 0.995060 0.997039 0.998309 0.999091 0.999549 0.999800 0.999925 0.999978 0.999996 1.000000 1.000000 0.000000 0.000000 0.000004 0.000022 0.000075 0.000200 0.000451 0.000909 0.001691 0.002961 0.004940 0.007930 0.012329 0.018657 0.027578 0.039920 0.056679 0.079004 0.108132 0.145260 0.191341 0.246811 0.311287 0.383351 0.460516 0.539484 0.616649 0.688713 0.753189 0.808659 0.854740 0.891868 0.920996 0.943321 0.960080 0.972422 0.981343 0.987671 0.992070 0.995060 0.997039 0.998309 0.999091 0.999549 0.999800 0.999925 0.999978 0.999996 1.000000 1.000000 0.000000 0.000000 0.000004 0.000022 0.000075 0.000200 0.000451 0.000909 0.001691 0.002961 0.004940 0.007930 0.012329 0.018657 0.027578 0.039920 0.056679 0.079004 0.108132 0.145260 0.191341 0.246811 0.311287 0.383351 0.460516 0.539484 0.616649 0.688713 0.753189 0.808659 0.854740 0.891868 0.920996 0.943321 0.960080 0.972422 0.981343 0.987671 0.992070 0.995060 0.997039 0.998309 0.999091 0.999549 0.999800 0.999925 0.999978 0.999996 1.000000 1.000000 0.000000 0.000000 0.000004 0.000022 0.000075 0.000200 0.000451 0.000909 0.001691 0.002961 0.004940 0.007930 0.012329 0.018657 0.027578 0.039920 0.056679 0.079004 0.108132 0.145260 0.191341 0.246811 0.311287 0.383351 0.460516 0.539484 0.616649 0.688713 0.753189 0.808659 0.854740 0.891868 0.920996 0.943321 0.960080 0.972422 0.981343 0.987671 0.992070 0.995060 0.997039 0.998309 0.999091 0.999549 0.999800 0.999925 0.999978 0.999996 1.000000 1.000000 0.000000 0.000000 0.000004 0.000022 0.000075 0.000200 0.000451 0.000909 0.001691 0.002961 0.004940 0.007930 0.012329 0.018657 0.027578 0.039920 0.056679 0.079004 0.108132 0.145260 0.191341 0.246811 0.311287 0.383351 0.460516 0.539484 0.616649 0.688713 0.753189 0.808659 0.854740 0.891868 0.920996 0.943321 0.960080 0.972422 0.981343 0.987671 0.992070 0.995060 0.997039 0.998309 0.999091 0.999549 0.999800 0.999925 0.999978 0.999996 1.000000 1.000000 0.000000 0.000000 0.000004 0.000022 0.000075 0.000200 0.000451 0.000909 0.001691 0.002961 0.004940 0.007930 0.012329 0.018657 0.027578 0.039920 0.056679 0.079004 0.108132 0.145260 0.191341 0.246811 0.311287 0.383351 0.460516 0.539484 0.616649 0.688713 0.753189 0.808659 0.854740 0.891868 0.920996 0.943321 0.960080 0.972422 0.981343 0.987671 0.992070 0.995060 0.997039 0.998309 0.999091 0.999549 0.999800 0.999925 0.999978 0.999996 1.000000 1.000000 0.000000 0.000000 0.000004 0.000022 0.000075 0.000200 0.000451 0.000909 0.001691 0.002961 0.004940 0.007930 0.012329 0.018657 0.027578 0.039920 0.056679 0.079004 0.108132 0.145260 0.191341 0.246811 0.311287 0.383351 0.460516 0.539484 0.616649 0.688713 0.753189 0.808659 0.854740 0.891868 0.920996 0.943321 0.960080 0.972422 0.981343 0.987671 0.992070 0.995060 0.997039 0.998309 0.999091 0.999549 0.999800 0.999925 0.999978 0.999996 1.000000 1.000000 0.000000 0.000000 0.000004 0.000022 0.000075 0.000200 0.000451 0.000909 0.001691 0.002961 0.004940 0.007930 0.012329 0.018657 0.027578 0.039920 0.056679 0.079004 0.108132 0.145260 0.191341 0.246811 0.311287 0.383351 0.460516 0.539484 0.616649 0.688713 0.753189 0.808659 0.854740 0.891868 0.920996 0.943321 0.960080 0.972422 0.981343 0.987671 0.992070 0.995060 0.997039 0.998309 0.999091 0.999549 0.999800 0.999925 0.999978 0.999996 1.000000 1.000000 0.000000 0.000000 0.000004 0.000022 0.000075 0.000200 0.000451 0.000909 0.001691 0.002961 0.004940 0.007930 0.012329 0.018657 0.027578 0.039920 0.056679 0.079004 0.108132 0.145260 0.191341 0.246811 0.311287 0.383351 0.460516 0.539484 0.616649 0.688713 0.753189 0.808659 0.854740 0.891868 0.920996 0.943321 0.960080 0.972422 0.981343 0.987671 0.992070 0.995060 0.997039 0.998309 0.999091 0.999549 0.999800 0.999925 0.999978 0.999996 1.000000 1.000000 0.000000 0.000000 0.000004 0.000022 0.000075 0.000200 0.000451 0.000909 0.001691 0.002961 0.004940 0.007930 0.012329 0.018657 0.027578 0.039920 0.056679 0.079004 0.108132 0.145260 0.191341 0.246811 0.311287 0.383351 0.460516 0.539484 0.616649 0.688713 0.753189 0.808659 0.854740 0.891868 0.920996 0.943321 0.960080 0.972422 0.981343 0.987671 0.992070 0.995060 0.997039 0.998309 0.999091 0.999549 0.999800 0.999925 0.999978 0.999996 1.000000 1.000000 0.000000 0.000000 0.000004 0.000022 0.000075 0.000200 0.000451 0.000909 0.001691 0.002961 0.004940 0.007930 0.012329 0.018657 0.027578 0.039920 0.056679 0.079004 0.108132 0.145260 0.191341 0.246811 0.311287 0.383351 0.460516 0.539484 0.616649 0.688713 0.753189 0.808659 0.854740 0.891868 0.920996 0.943321 0.960080 0.972422 0.981343 0.987671 0.992070 0.995060 0.997039 0.998309 0.999091 0.999549 0.999800 0.999925 0.999978 0.999996 1.000000 1.000000 0.000000 0.000000 0.000004 0.000022 0.000075 0.000200 0.000451 0.000909 0.001691 0.002961 0.004940 0.007930 0.012329 0.018657 0.027578 0.039920 0.056679 0.079004 0.108132 0.145260 0.191341 0.246811 0.311287 0.383351 0.460516 0.539484 0.616649 0.688713 0.753189 0.808659 0.854740 0.891868 0.920996 0.943321 0.960080 0.972422 0.981343 0.987671 0.992070 0.995060 0.997039 0.998309 0.999091 0.999549 0.999800 0.999925 0.999978 0.999996 1.000000 1.000000 0.000000 0.000000 0.000004 0.000022 0.000075 0.000200 0.000451 0.000909 0.001691 0.002961 0.004940 0.007930 0.012329 0.018657 0.027578 0.039920 0.056679 0.079004 0.108132 0.145260 0.191341 0.246811 0.311287 0.383351 0.460516 0.539484 0.616649 0.688713 0.753189 0.808659 0.854740 0.891868 0.920996 0.943321 0.960080 0.972422 0.981343 0.987671 0.992070 0.995060 0.997039 0.998309 0.999091 0.999549 0.999800 0.999925 0.999978 0.999996 1.000000 1.000000 0.000000 0.000000 0.000004 0.000022 0.000075 0.000200 0.000451 0.000909 0.001691 0.002961 0.004940 0.007930 0.012329 0.018657 0.027578 0.039920 0.056679 0.079004 0.108132 0.145260 0.191341 0.246811 0.311287 0.383351 0.460516 0.539484 0.616649 0.688713 0.753189 0.808659 0.854740 0.891868 0.920996 0.943321 0.960080 0.972422 0.981343 0.987671 0.992070 0.995060 0.997039 0.998309 0.999091 0.999549 0.999800 0.999925 0.999978 0.999996 1.000000 1.000000 0.000000 0.000000 0.000004 0.000022 0.000075 0.000200 0.000451 0.000909 0.001691 0.002961 0.004940 0.007930 0.012329 0.018657 0.027578 0.039920 0.056679 0.079004 0.108132 0.145260 0.191341 0.246811 0.311287 0.383351 0.460516 0.539484 0.616649 0.688713 0.753189 0.808659 0.854740 0.891868 0.920996 0.943321 0.960080 0.972422 0.981343 0.987671 0.992070 0.995060 0.997039 0.998309 0.999091 0.999549 0.999800 0.999925 0.999978 0.999996 1.000000 1.000000 0.000000 0.000000 0.000004 0.000022 0.000075 0.000200 0.000451 0.000909 0.001691 0.002961 0.004940 0.007930 0.012329 0.018657 0.027578 0.039920 0.056679 0.079004 0.108132 0.145260 0.191341 0.246811 0.311287 0.383351 0.460516 0.539484 0.616649 0.688713 0.753189 0.808659 0.854740 0.891868 0.920996 0.943321 0.960080 0.972422 0.981343 0.987671 0.992070 0.995060 0.997039 0.998309 0.999091 0.999549 0.999800 0.999925 0.999978 0.999996 1.000000 1.000000 0.000000 0.000000 0.000004 0.000022 0.000075 0.000200 0.000451 0.000909 0.001691 0.002961 0.004940 0.007930 0.012329 0.018657 0.027578 0.039920 0.056679 0.079004 0.108132 0.145260 0.191341 0.246811 0.311287 0.383351 0.460516 0.539484 0.616649 0.688713 0.753189 0.808659 0.854740 0.891868 0.920996 0.943321 0.960080 0.972422 0.981343 0.987671 0.992070 0.995060 0.997039 0.998309 0.999091 0.999549 0.999800 0.999925 0.999978 0.999996 1.000000 1.000000 0.000000 0.000000 0.000004 0.000022 0.000075 0.000200 0.000451 0.000909 0.001691 0.002961 0.004940 0.007930 0.012329 0.018657 0.027578 0.039920 0.056679 0.079004 0.108132 0.145260 0.191341 0.246811 0.311287 0.383351 0.460516 0.539484 0.616649 0.688713 0.753189 0.808659 0.854740 0.891868 0.920996 0.943321 0.960080 0.972422 0.981343 0.987671 0.992070 0.995060 0.997039 0.998309 0.999091 0.999549 0.999800 0.999925 0.999978 0.999996 1.000000 1.000000 0.000000 0.000000 0.000004 0.000022 0.000075 0.000200 0.000451 0.000909 0.001691 0.002961 0.004940 0.007930 0.012329 0.018657 0.027578 0.039920 0.056679 0.079004 0.108132 0.145260 0.191341 0.246811 0.311287 0.383351 0.460516 0.539484 0.616649 0.688713 0.753189 0.808659 0.854740 0.891868 0.920996 0.943321 0.960080 0.972422 0.981343 0.987671 0.992070 0.995060 0.997039 0.998309 0.999091 0.999549 0.999800 0.999925 0.999978 0.999996 1.000000 1.000000 0.000000 0.000000 0.000004 0.000022 0.000075 0.000200 0.000451 0.000909 0.001691 0.002961 0.004940 0.007930 0.012329 0.018657 0.027578 0.039920 0.056679 0.079004 0.108132 0.145260 0.191341 0.246811 0.311287 0.383351 0.460516 0.539484 0.616649 0.688713 0.753189 0.808659 0.854740 0.891868 0.920996 0.943321 0.960080 0.972422 0.981343 0.987671 0.992070 0.995060 0.997039 0.998309 0.999091 0.999549 0.999800 0.999925 0.999978 0.999996 1.000000 1.000000 0.000000 0.000000 0.000004 0.000022 0.000075 0.000200 0.000451 0.000909 0.001691 0.002961 0.004940 0.007930 0.012329 0.018657 0.027578 0.039920 0.056679 0.079004 0.108132 0.145260 0.191341 0.246811 0.311287 0.383351 0.460516 0.539484 0.616649 0.688713 0.753189 0.808659 0.854740 0.891868 0.920996 0.943321 0.960080 0.972422 0.981343 0.987671 0.992070 0.995060 0.997039 0.998309 0.999091 0.999549 0.999800 0.999925 0.999978 0.999996 1.000000 1.000000 0.000000 0.000000 0.000004 0.000022 0.000075 0.000200 0.000451 0.000909 0.001691 0.002961 0.004940 0.007930 0.012329 0.018657 0.027578 0.039920 0.056679 0.079004 0.108132 0.145260 0.191341 0.246811 0.311287 0.383351 0.460516 0.539484 0.616649 0.688713 0.753189 0.808659 0.854740 0.891868 0.920996 0.943321 0.960080 0.972422 0.981343 0.987671 0.992070 0.995060 0.997039 0.998309 0.999091 0.999549 0.999800 0.999925 0.999978 0.999996 1.000000 1.000000 0.000000 0.000000 0.000004 0.000022 0.000075 0.000200 0.000451 0.000909 0.001691 0.002961 0.004940 0.007930 0.012329 0.018657 0.027578 0.039920 0.056679 0.079004 0.108132 0.145260 0.191341 0.246811 0.311287 0.383351 0.460516 0.539484 0.616649 0.688713 0.753189 0.808659 0.854740 0.891868 0.920996 0.943321 0.960080 0.972422 0.981343 0.987671 0.992070 0.995060 0.997039 0.998309 0.999091 0.999549 0.999800 0.999925 0.999978 0.999996 1.000000 1.000000 0.000000 0.000000 0.000004 0.000022 0.000075 0.000200 0.000451 0.000909 0.001691 0.002961 0.004940 0.007930 0.012329 0.018657 0.027578 0.039920 0.056679 0.079004 0.108132 0.145260 0.191341 0.246811 0.311287 0.383351 0.460516 0.539484 0.616649 0.688713 0.753189 0.808659 0.854740 0.891868 0.920996 0.943321 0.960080 0.972422 0.981343 0.987671 0.992070 0.995060 0.997039 0.998309 0.999091 0.999549 0.999800 0.999925 0.999978 0.999996 1.000000 1.000000 0.000000 0.000000 0.000004 0.000022 0.000075 0.000200 0.000451 0.000909 0.001691 0.002961 0.004940 0.007930 0.012329 0.018657 0.027578 0.039920 0.056679 0.079004 0.108132 0.145260 0.191341 0.246811 0.311287 0.383351 0.460516 0.539484 0.616649 0.688713 0.753189 0.808659 0.854740 0.891868 0.920996 0.943321 0.960080 0.972422 0.981343 0.987671 0.992070 0.995060 0.997039 0.998309 0.999091 0.999549 0.999800 0.999925 0.999978 0.999996 1.000000 1.000000 0.000000 0.000000 0.000004 0.000022 0.000075 0.000200 0.000451 0.000909 0.001691 0.002961 0.004940 0.007930 0.012329 0.018657 0.027578 0.039920 0.056679 0.079004 0.108132 0.145260 0.191341 0.246811 0.311287 0.383351 0.460516 0.539484 0.616649 0.688713 0.753189 0.808659 0.854740 0.891868 0.920996 0.943321 0.960080 0.972422 0.981343 0.987671 0.992070 0.995060 0.997039 0.998309 0.999091 0.999549 0.999800 0.999925 0.999978 0.999996 1.000000 1.000000 0.000000 0.000001 0.000006 0.000027 0.000086 0.000218 0.000479 0.000952 0.001755 0.003051 0.005066 0.008101 0.012556 0.018952 0.027954 0.040386 0.057242 0.079663 0.108873 0.146053 0.192140 0.247550 0.311892 0.383749 0.460655 0.539345 0.616251 0.688108 0.752450 0.807860 0.853947 0.891127 0.920337 0.942758 0.959614 0.972046 0.981048 0.987444 0.991899 0.994934 0.996949 0.998245 0.999048 0.999521 0.999782 0.999914 0.999973 0.999994 0.999999 1.000000 0.000000 0.000001 0.000006 0.000027 0.000086 0.000218 0.000479 0.000952 0.001755 0.003051 0.005066 0.008101 0.012556 0.018952 0.027954 0.040386 0.057242 0.079663 0.108873 0.146053 0.192140 0.247550 0.311892 0.383749 0.460655 0.539345 0.616251 0.688108 0.752450 0.807860 0.853947 0.891127 0.920337 0.942758 0.959614 0.972046 0.981048 0.987444 0.991899 0.994934 0.996949 0.998245 0.999048 0.999521 0.999782 0.999914 0.999973 0.999994 0.999999 1.000000 0.000000 0.000001 0.000006 0.000027 0.000086 0.000218 0.000479 0.000952 0.001755 0.003051 0.005066 0.008101 0.012556 0.018952 0.027954 0.040386 0.057242 0.079663 0.108873 0.146053 0.192140 0.247550 0.311892 0.383749 0.460655 0.539345 0.616251 0.688108 0.752450 0.807860 0.853947 0.891127 0.920337 0.942758 0.959614 0.972046 0.981048 0.987444 0.991899 0.994934 0.996949 0.998245 0.999048 0.999521 0.999782 0.999914 0.999973 0.999994 0.999999 1.000000 0.000000 0.000001 0.000006 0.000027 0.000086 0.000218 0.000479 0.000952 0.001755 0.003051 0.005066 0.008101 0.012556 0.018952 0.027954 0.040386 0.057242 0.079663 0.108873 0.146053 0.192140 0.247550 0.311892 0.383749 0.460655 0.539345 0.616251 0.688108 0.752450 0.807860 0.853947 0.891127 0.920337 0.942758 0.959614 0.972046 0.981048 0.987444 0.991899 0.994934 0.996949 0.998245 0.999048 0.999521 0.999782 0.999914 0.999973 0.999994 0.999999 1.000000 0.000000 0.000001 0.000006 0.000027 0.000086 0.000218 0.000479 0.000952 0.001755 0.003051 0.005066 0.008101 0.012556 0.018952 0.027954 0.040386 0.057242 0.079663 0.108873 0.146053 0.192140 0.247550 0.311892 0.383749 0.460655 0.539345 0.616251 0.688108 0.752450 0.807860 0.853947 0.891127 0.920337 0.942758 0.959614 0.972046 0.981048 0.987444 0.991899 0.994934 0.996949 0.998245 0.999048 0.999521 0.999782 0.999914 0.999973 0.999994 0.999999 1.000000 0.000000 0.000001 0.000006 0.000027 0.000086 0.000218 0.000479 0.000952 0.001755 0.003051 0.005066 0.008101 0.012556 0.018952 0.027954 0.040386 0.057242 0.079663 0.108873 0.146053 0.192140 0.247550 0.311892 0.383749 0.460655 0.539345 0.616251 0.688108 0.752450 0.807860 0.853947 0.891127 0.920337 0.942758 0.959614 0.972046 0.981048 0.987444 0.991899 0.994934 0.996949 0.998245 0.999048 0.999521 0.999782 0.999914 0.999973 0.999994 0.999999 1.000000 0.000000 0.000001 0.000006 0.000027 0.000086 0.000218 0.000479 0.000952 0.001755 0.003051 0.005066 0.008101 0.012556 0.018952 0.027954 0.040386 0.057242 0.079663 0.108873 0.146053 0.192140 0.247550 0.311892 0.383749 0.460655 0.539345 0.616251 0.688108 0.752450 0.807860 0.853947 0.891127 0.920337 0.942758 0.959614 0.972046 0.981048 0.987444 0.991899 0.994934 0.996949 0.998245 0.999048 0.999521 0.999782 0.999914 0.999973 0.999994 0.999999 1.000000 0.000000 0.000001 0.000006 0.000027 0.000086 0.000218 0.000479 0.000952 0.001755 0.003051 0.005066 0.008101 0.012556 0.018952 0.027954 0.040386 0.057242 0.079663 0.108873 0.146053 0.192140 0.247550 0.311892 0.383749 0.460655 0.539345 0.616251 0.688108 0.752450 0.807860 0.853947 0.891127 0.920337 0.942758 0.959614 0.972046 0.981048 0.987444 0.991899 0.994934 0.996949 0.998245 0.999048 0.999521 0.999782 0.999914 0.999973 0.999994 0.999999 1.000000 0.000000 0.000001 0.000006 0.000027 0.000086 0.000218 0.000479 0.000952 0.001755 0.003051 0.005066 0.008101 0.012556 0.018952 0.027954 0.040386 0.057242 0.079663 0.108873 0.146053 0.192140 0.247550 0.311892 0.383749 0.460655 0.539345 0.616251 0.688108 0.752450 0.807860 0.853947 0.891127 0.920337 0.942758 0.959614 0.972046 0.981048 0.987444 0.991899 0.994934 0.996949 0.998245 0.999048 0.999521 0.999782 0.999914 0.999973 0.999994 0.999999 1.000000 0.000000 0.000001 0.000006 0.000027 0.000086 0.000218 0.000479 0.000952 0.001755 0.003051 0.005066 0.008101 0.012556 0.018952 0.027954 0.040386 0.057242 0.079663 0.108873 0.146053 0.192140 0.247550 0.311892 0.383749 0.460655 0.539345 0.616251 0.688108 0.752450 0.807860 0.853947 0.891127 0.920337 0.942758 0.959614 0.972046 0.981048 0.987444 0.991899 0.994934 0.996949 0.998245 0.999048 0.999521 0.999782 0.999914 0.999973 0.999994 0.999999 1.000000 0.000000 0.000001 0.000006 0.000027 0.000086 0.000218 0.000479 0.000952 0.001755 0.003051 0.005066 0.008101 0.012556 0.018952 0.027954 0.040386 0.057242 0.079663 0.108873 0.146053 0.192140 0.247550 0.311892 0.383749 0.460655 0.539345 0.616251 0.688108 0.752450 0.807860 0.853947 0.891127 0.920337 0.942758 0.959614 0.972046 0.981048 0.987444 0.991899 0.994934 0.996949 0.998245 0.999048 0.999521 0.999782 0.999914 0.999973 0.999994 0.999999 1.000000 0.000000 0.000001 0.000006 0.000027 0.000086 0.000218 0.000479 0.000952 0.001755 0.003051 0.005066 0.008101 0.012556 0.018952 0.027954 0.040386 0.057242 0.079663 0.108873 0.146053 0.192140 0.247550 0.311892 0.383749 0.460655 0.539345 0.616251 0.688108 0.752450 0.807860 0.853947 0.891127 0.920337 0.942758 0.959614 0.972046 0.981048 0.987444 0.991899 0.994934 0.996949 0.998245 0.999048 0.999521 0.999782 0.999914 0.999973 0.999994 0.999999 1.000000 0.000000 0.000001 0.000006 0.000027 0.000086 0.000218 0.000479 0.000952 0.001755 0.003051 0.005066 0.008101 0.012556 0.018952 0.027954 0.040386 0.057242 0.079663 0.108873 0.146053 0.192140 0.247550 0.311892 0.383749 0.460655 0.539345 0.616251 0.688108 0.752450 0.807860 0.853947 0.891127 0.920337 0.942758 0.959614 0.972046 0.981048 0.987444 0.991899 0.994934 0.996949 0.998245 0.999048 0.999521 0.999782 0.999914 0.999973 0.999994 0.999999 1.000000 0.000000 0.000001 0.000006 0.000027 0.000086 0.000218 0.000479 0.000952 0.001755 0.003051 0.005066 0.008101 0.012556 0.018952 0.027954 0.040386 0.057242 0.079663 0.108873 0.146053 0.192140 0.247550 0.311892 0.383749 0.460655 0.539345 0.616251 0.688108 0.752450 0.807860 0.853947 0.891127 0.920337 0.942758 0.959614 0.972046 0.981048 0.987444 0.991899 0.994934 0.996949 0.998245 0.999048 0.999521 0.999782 0.999914 0.999973 0.999994 0.999999 1.000000 0.000000 0.000001 0.000006 0.000027 0.000086 0.000218 0.000479 0.000952 0.001755 0.003051 0.005066 0.008101 0.012556 0.018952 0.027954 0.040386 0.057242 0.079663 0.108873 0.146053 0.192140 0.247550 0.311892 0.383749 0.460655 0.539345 0.616251 0.688108 0.752450 0.807860 0.853947 0.891127 0.920337 0.942758 0.959614 0.972046 0.981048 0.987444 0.991899 0.994934 0.996949 0.998245 0.999048 0.999521 0.999782 0.999914 0.999973 0.999994 0.999999 1.000000 0.000000 0.000001 0.000006 0.000027 0.000086 0.000218 0.000479 0.000952 0.001755 0.003051 0.005066 0.008101 0.012556 0.018952 0.027954 0.040386 0.057242 0.079663 0.108873 0.146053 0.192140 0.247550 0.311892 0.383749 0.460655 0.539345 0.616251 0.688108 0.752450 0.807860 0.853947 0.891127 0.920337 0.942758 0.959614 0.972046 0.981048 0.987444 0.991899 0.994934 0.996949 0.998245 0.999048 0.999521 0.999782 0.999914 0.999973 0.999994 0.999999 1.000000 0.000000 0.000001 0.000006 0.000027 0.000086 0.000218 0.000479 0.000952 0.001755 