# vtk DataFile Version 3.0
vtk output
ASCII
DATASET STRUCTURED_POINTS
DIMENSIONS 50 50 50
SPACING 0.019155 0.020055 0.019712
ORIGIN 0.044089 0.009938 0.033938
POINT_DATA 125000
SCALARS RTData float
LOOKUP_TABLE default
0.867813 0.863580 0.856119 0.845067 0.830320 0.812329 0.792324 0.772190 0.753888 0.738736 0.727037 0.718219 0.711243 0.704953 0.698265 0.690212 0.679948 0.666774 0.650215 0.630133 0.606817 0.580975 0.553647 0.526079 0.499611 0.475549 0.454985 0.438612 0.426588 0.418505 0.413495 0.410504 0.408548 0.406805 0.404537 0.400981 0.395344 0.386949 0.375482 0.361174 0.344785 0.327367 0.309974 0.293429 0.278241 0.264631 0.252614 0.242077 0.232848 0.224737 0.867892 0.863664 0.856121 0.844881 0.829830 0.811447 0.791039 0.770607 0.752214 0.737209 0.725845 0.717464 0.710940 0.705052 0.698666 0.690772 0.680493 0.667119 0.650217 0.629757 0.606167 0.580245 0.552996 0.525529 0.499051 0.474822 0.453988 0.437357 0.425225 0.417274 0.412615 0.410086 0.408618 0.407368 0.405592 0.402456 0.396995 0.388317 0.375967 0.360222 0.342076 0.322906 0.304032 0.286416 0.270585 0.256698 0.244678 0.234323 0.225388 0.217631 0.865115 0.860795 0.853078 0.841604 0.826299 0.807710 0.787229 0.766922 0.748864 0.734358 0.723578 0.715788 0.709798 0.704344 0.698251 0.690474 0.680108 0.666457 0.649180 0.628431 0.604839 0.579289 0.552667 0.525821 0.499726 0.475564 0.454525 0.437518 0.424995 0.416823 0.412188 0.409851 0.408638 0.407665 0.406163 0.403209 0.397646 0.388355 0.374755 0.357233 0.337111 0.316147 0.295928 0.277502 0.261343 0.247494 0.235754 0.225819 0.217367 0.210109 0.859160 0.854659 0.846703 0.834989 0.819540 0.801007 0.780856 0.761147 0.743868 0.730201 0.720222 0.713133 0.707715 0.702679 0.696824 0.689078 0.678523 0.664510 0.646854 0.625973 0.602747 0.578110 0.552714 0.527018 0.501699 0.477864 0.456770 0.439381 0.426240 0.417442 0.412406 0.409920 0.408701 0.407763 0.406255 0.403114 0.396973 0.386507 0.371101 0.351391 0.329141 0.306518 0.285302 0.266516 0.250487 0.237083 0.225955 0.216695 0.208919 0.202299 0.849662 0.844929 0.836730 0.824864 0.809487 0.791370 0.772014 0.753387 0.737296 0.724746 0.715709 0.709356 0.704471 0.699766 0.694032 0.686184 0.675319 0.660886 0.642929 0.622190 0.599799 0.576652 0.553047 0.528969 0.504764 0.481506 0.460583 0.442996 0.429221 0.419483 0.413560 0.410472 0.408893 0.407666 0.405744 0.401846 0.394381 0.381912 0.363987 0.341705 0.317382 0.293525 0.271939 0.253453 0.238138 0.225645 0.215479 0.207147 0.200220 0.194355 0.836304 0.831353 0.823013 0.811212 0.796250 0.778997 0.760922 0.743813 0.729225 0.717961 0.709905 0.704231 0.699757 0.695225 0.689440 0.681331 0.670058 0.655230 0.637184 0.616994 0.595957 0.574808 0.553416 0.531276 0.508426 0.485937 0.465411 0.447936 0.433816 0.423142 0.415959 0.411723 0.409244 0.407177 0.404165 0.398620 0.388762 0.373240 0.352078 0.327092 0.301155 0.276897 0.255871 0.238517 0.224573 0.213470 0.204597 0.197410 0.191472 0.186447 0.818990 0.813922 0.805663 0.794272 0.780171 0.764264 0.747907 0.732638 0.719727 0.709785 0.702636 0.697492 0.693239 0.688675 0.682646 0.674141 0.662440 0.647380 0.629611 0.610461 0.591232 0.572385 0.553370 0.533292 0.511930 0.490347 0.470357 0.453231 0.439154 0.427895 0.419429 0.413569 0.409438 0.405620 0.400420 0.391934 0.378331 0.358686 0.333891 0.306632 0.280131 0.256742 0.237438 0.222129 0.210204 0.200924 0.193618 0.187741 0.182885 0.178748 0.798063 0.793060 0.785201 0.774645 0.761869 0.747728 0.733390 0.720109 0.708882 0.700158 0.693740 0.688910 0.684647 0.679833 0.673395 0.664431 0.652407 0.637424 0.620391 0.602724 0.585554 0.569013 0.552248 0.534140 0.514311 0.493757 0.474387 0.457655 0.443767 0.432224 0.422671 0.414910 0.408301 0.401489 0.392589 0.379549 0.360821 0.336378 0.308308 0.280038 0.254635 0.233679 0.217317 0.204899 0.195538 0.188411 0.182858 0.178391 0.174658 0.171414 0.774515 0.769807 0.762686 0.753353 0.742259 0.730130 0.717903 0.706551 0.696838 0.689099 0.683153 0.678373 0.673856 0.668598 0.661646 0.652260 0.640128 0.625594 0.609697 0.593752 0.578594 0.564067 0.549170 0.532761 0.514426 0.495045 0.476423 0.460046 0.446199 0.434278 0.423594 0.413644 0.403732 0.392561 0.378288 0.359124 0.334366 0.305390 0.275499 0.248294 0.225983 0.208977 0.196556 0.187624 0.181158 0.176354 0.172632 0.169592 0.166968 0.164584 0.750069 0.745858 0.739719 0.731830 0.722546 0.712414 0.702132 0.692429 0.683892 0.676790 0.670985 0.665963 0.660953 0.655090 0.647578 0.637867 0.625857 0.612050 0.597461 0.583163 0.569669 0.556628 0.543057 0.527953 0.510988 0.492918 0.475260 0.459295 0.445295 0.432636 0.420400 0.407717 0.393631 0.376833 0.355804 0.329610 0.299072 0.267208 0.237998 0.214282 0.196791 0.184703 0.176646 0.171329 0.167753 0.165217 0.163254 0.161566 0.159973 0.158374 0.726972 0.723372 0.718278 0.711798 0.704155 0.695708 0.686945 0.678404 0.670552 0.663634 0.657578 0.651991 0.646247 0.639636 0.631529 0.621558 0.609777 0.596732 0.583290 0.570228 0.557788 0.545543 0.532660 0.518401 0.502627 0.485989 0.469601 0.454313 0.440183 0.426517 0.412236 0.396173 0.377118 0.353848 0.325560 0.292837 0.258459 0.226690 0.201062 0.182735 0.170806 0.163577 0.159456 0.157245 0.156113 0.155500 0.155041 0.154516 0.153809 0.152875 0.707462 0.704485 0.700310 0.694961 0.688531 0.681220 0.673349 0.665325 0.657546 0.650269 0.643506 0.636991 0.630248 0.622717 0.613923 0.603632 0.591970 0.579419 0.566635 0.554115 0.541928 0.529689 0.516827 0.502977 0.488260 0.473248 0.458588 0.444529 0.430693 0.416151 0.399651 0.379834 0.355434 0.325658 0.290960 0.253926 0.219067 0.190743 0.170819 0.158428 0.151476 0.147997 0.146619 0.146463 0.146948 0.147652 0.148271 0.148611 0.148577 0.148147 0.693067 0.690661 0.687180 0.682568 0.676811 0.669990 0.662308 0.654092 0.645715 0.637481 0.629504 0.621655 0.613601 0.604919 0.595247 0.584423 0.572557 0.560002 0.547190 0.534405 0.521648 0.508703 0.495377 0.481758 0.468248 0.455310 0.443075 0.431100 0.418396 0.403599 0.385179 0.361679 0.332096 0.296598 0.257438 0.219209 0.187192 0.164478 0.150686 0.143347 0.139904 0.138635 0.138615 0.139362 0.140551 0.141884 0.143082 0.143933 0.144317 0.144205 0.684133 0.682238 0.679237 0.675009 0.669457 0.662566 0.654458 0.645410 0.635807 0.626031 0.616325 0.606710 0.596996 0.586876 0.576061 0.564395 0.551920 0.538833 0.525377 0.511723 0.497939 0.484104 0.470491 0.457614 0.446016 0.435892 0.426821 0.417728 0.407022 0.392768 0.372977 0.346071 0.311637 0.271395 0.229770 0.192849 0.165437 0.148542 0.139808 0.135942 0.134494 0.134191 0.134544 0.135398 0.136633 0.138055 0.139404 0.140436 0.140990 0.141005 0.679868 0.678429 0.675769 0.671708 0.666077 0.658774 0.649845 0.639524 0.628225 0.616431 0.604545 0.592766 0.581056 0.569214 0.556993 0.544216 0.530830 0.516907 0.502588 0.488060 0.473597 0.459660 0.446910 0.436021 0.427322 0.420544 0.414813 0.408731 0.400366 0.387237 0.366631 0.336579 0.297408 0.252958 0.210027 0.175444 0.152586 0.140320 0.134999 0.133133 0.132621 0.132603 0.132891 0.133526 0.134518 0.135747 0.136976 0.137948 0.138469 0.138447 0.678820 0.677782 0.675384 0.671400 0.665588 0.657757 0.647859 0.636077 0.622842 0.608750 0.594388 0.580162 0.566211 0.552450 0.538672 0.524675 0.510343 0.495684 0.480846 0.466153 0.452144 0.439556 0.429127 0.421262 0.415798 0.412047 0.408993 0.405308 0.399084 0.387449 0.366727 0.334022 0.290200 0.241660 0.197732 0.165319 0.145916 0.136660 0.133263 0.132360 0.132206 0.132221 0.132372 0.132777 0.133499 0.134461 0.135452 0.136223 0.136569 0.136383 0.679450 0.678741 0.676548 0.672606 0.666605 0.658258 0.647414 0.634181 0.618992 0.602547 0.585626 0.568862 0.552601 0.536891 0.521590 0.506499 0.491484 0.476561 0.461960 0.448155 0.435836 0.425728 0.418281 0.413416 0.410547 0.408845 0.407441 0.405314 0.400796 0.390845 0.370816 0.336382 0.288415 0.236009 0.191115 0.160269 0.143031 0.135358 0.132799 0.132230 0.132166 0.132173 0.132258 0.132532 0.133059 0.133775 0.134497 0.134996 0.135080 0.134638 0.680483 0.680016 0.677958 0.674013 0.667807 0.658963 0.647229 0.632636 0.615609 0.596942 0.577598 0.558440 0.540025 0.522558 0.505980 0.490134 0.474907 0.460361 0.446790 0.434721 0.424773 0.417401 0.412626 0.409981 0.408720 0.408105 0.407519 0.406257 0.402923 0.394474 0.375537 0.340275 0.289095 0.233524 0.187940 0.158255 0.142276 0.135239 0.132852 0.132275 0.132185 0.132193 0.132273 0.132492 0.132883 0.133382 0.133829 0.134022 0.133789 0.133032 0.680997 0.680672 0.678651 0.674603 0.668102 0.658694 0.646046 0.630139 0.611416 0.590764 0.569318 0.548140 0.527975 0.509169 0.491758 0.475639 0.460739 0.447146 0.435154 0.425197 0.417662 0.412648 0.409836 0.408581 0.408170 0.408036 0.407781 0.406907 0.404197 0.396638 0.378410 0.342579 0.289132 0.231515 0.185869 0.157323 0.142272 0.135528 0.133087 0.132408 0.132260 0.132254 0.132325 0.132493 0.132758 0.133046 0.133212 0.133080 0.132500 0.131388 0.680313 0.680018 0.677891 0.673568 0.666571 0.656391 0.642662 0.625374 0.605045 0.582692 0.559602 0.536985 0.515702 0.496188 0.478542 0.462702 0.448623 0.436387 0.426210 0.418348 0.412913 0.409713 0.408237 0.407818 0.407850 0.407920 0.407754 0.406933 0.404262 0.396676 0.378115 0.341258 0.286310 0.228026 0.183131 0.155834 0.141637 0.135194 0.132804 0.132176 0.132094 0.132126 0.132199 0.132318 0.132464 0.132552 0.132444 0.131982 0.131037 0.129542 0.677816 0.677405 0.674967 0.670095 0.662266 0.650950 0.635812 0.616953 0.595059 0.571330 0.547187 0.523898 0.502332 0.482911 0.465731 0.450740 0.437896 0.427242 0.418892 0.412914 0.409194 0.407352 0.406808 0.406941 0.407251 0.407416 0.407192 0.406107 0.402837 0.394149 0.373956 0.335434 0.279893 0.222607 0.179404 0.153454 0.139947 0.133683 0.131291 0.130785 0.130968 0.131262 0.131508 0.131694 0.131796 0.131729 0.131368 0.130577 0.129253 0.127349 0.672769 0.672016 0.668956 0.663123 0.653964 0.640982 0.623979 0.603299 0.579918 0.555263 0.530834 0.507832 0.486984 0.468577 0.452623 0.439035 0.427754 0.418789 0.412165 0.407813 0.405473 0.404675 0.404833 0.405383 0.405894 0.406067 0.405595 0.403848 0.399257 0.388409 0.365546 0.325273 0.270598 0.216198 0.175673 0.151219 0.138265 0.132025 0.129446 0.128817 0.129114 0.129692 0.130221 0.130579 0.130702 0.130510 0.129898 0.128762 0.127029 0.124683 0.664159 0.662685 0.658512 0.651112 0.639938 0.624625 0.605267 0.582621 0.558054 0.533202 0.509516 0.487954 0.468943 0.452521 0.438545 0.426865 0.417406 0.410163 0.405121 0.402147 0.400916 0.400936 0.401639 0.402502 0.403112 0.403124 0.402101 0.399187 0.392562 0.378800 0.353003 0.311887 0.259981 0.210157 0.173075 0.150215 0.137704 0.131396 0.128549 0.127621 0.127725 0.128273 0.128865 0.129261 0.129318 0.128931 0.128003 0.126460 0.124262 0.121426 0.650638 0.647811 0.641772 0.631957 0.617918 0.599597 0.577595 0.553237 0.528285 0.504422 0.482817 0.463988 0.447937 0.434395 0.423046 0.413673 0.406201 0.400648 0.397017 0.395178 0.394814 0.395444 0.396527 0.397551 0.398072 0.397654 0.395691 0.391116 0.381985 0.365207 0.337230 0.296949 0.249569 0.205352 0.172066 0.150793 0.138586 0.132075 0.128870 0.127547 0.127274 0.127507 0.127847 0.128004 0.127776 0.127022 0.125646 0.123590 0.120846 0.117461 0.630667 0.625533 0.616586 0.603329 0.585614 0.563951 0.539663 0.514652 0.490846 0.469626 0.451598 0.436702 0.424503 0.414464 0.406135 0.399262 0.393790 0.389795 0.387344 0.386369 0.386601 0.387601 0.388844 0.389807 0.389984 0.388826 0.385583 0.379076 0.367475 0.348368 0.319711 0.282022 0.240230 0.201892 0.172411 0.152680 0.140683 0.133845 0.130163 0.128334 0.127552 0.127281 0.127126 0.126783 0.126030 0.124708 0.122721 0.120030 0.116654 0.112666 0.603012 0.594398 0.581431 0.563915 0.542317 0.517977 0.492936 0.469341 0.448770 0.431896 0.418604 0.408312 0.400286 0.393848 0.388502 0.383990 0.380294 0.377556 0.375937 0.375466 0.375955 0.377017 0.378142 0.378778 0.378354 0.376227 0.371574 0.363258 0.349786 0.329586 0.301876 0.268010 0.232073 0.199332 0.173467 0.155267 0.143487 0.136274 0.132020 0.129570 0.128148 0.127216 0.126378 0.125331 0.123850 0.121780 0.119040 0.115611 0.111539 0.106922 0.567659 0.554642 0.537127 0.515566 0.491310 0.466484 0.443377 0.423690 0.408125 0.396503 0.388137 0.382183 0.377839 0.374442 0.371521 0.368834 0.366387 0.364382 0.363075 0.362611 0.362907 0.363639 0.364317 0.364362 0.363150 0.359992 0.354083 0.344458 0.330068 0.310094 0.284572 0.255060 0.224667 0.196959 0.174430 0.157778 0.146308 0.138761 0.133899 0.130738 0.128556 0.126826 0.125155 0.123248 0.120891 0.117950 0.114364 0.110143 0.105358 0.100129 0.526745 0.509416 0.488256 0.464585 0.440504 0.418327 0.399786 0.385570 0.375432 0.368613 0.364230 0.361477 0.359675 0.358267 0.356832 0.355131 0.353161 0.351154 0.349457 0.348346 0.347868 0.347786 0.347645 0.346853 0.344761 0.340682 0.333889 0.323645 0.309311 0.290600 0.267946 0.242770 0.217321 0.193991 0.174478 0.159376 0.148345 0.140565 0.135122 0.131211 0.128189 0.125561 0.122953 0.120088 0.116777 0.112910 0.108458 0.103458 0.098005 0.092235 0.484537 0.464436 0.442061 0.419371 0.398577 0.381381 0.368467 0.359556 0.353842 0.350427 0.348544 0.347592 0.347076 0.346555 0.345634 0.344038 0.341713 0.338885 0.335989 0.333458 0.331511 0.330044 0.328664 0.326797 0.323792 0.318986 0.311752 0.301551 0.288036 0.271218 0.251643 0.230466 0.209278 0.189684 0.172850 0.159259 0.148778 0.140892 0.134944 0.130303 0.126420 0.122858 0.119278 0.115434 0.111169 0.106408 0.101150 0.095459 0.089448 0.083261 0.445893 0.425450 0.404655 0.385516 0.369677 0.357880 0.349907 0.344965 0.342135 0.340663 0.340010 0.339792 0.339668 0.339266 0.338174 0.336028 0.332671 0.328291 0.323409 0.318660 0.314499 0.311019 0.307945 0.304752 0.300803 0.295461 0.288167 0.278508 0.266292 0.251639 0.235055 0.217417 0.199835 0.183393 0.168900 0.156737 0.146878 0.139005 0.132662 0.127366 0.122677 0.118224 0.113721 0.108966 0.103840 0.098301 0.092378 0.086153 0.079750 0.073313 0.414180 0.395556 0.378153 0.363525 0.352527 0.345126 0.340642 0.338174 0.336938 0.336395 0.336217 0.336176 0.336023 0.335400 0.333821 0.330780 0.325962 0.319481 0.311948 0.304251 0.297165 0.291063 0.285849 0.281078 0.276137 0.270394 0.263309 0.254503 0.243821 0.231371 0.217543 0.202969 0.188414 0.174618 0.162146 0.151295 0.142087 0.134335 0.127725 0.121905 0.116533 0.111317 0.106031 0.100523 0.094713 0.088592 0.082209 0.075660 0.069071 0.062578 0.390349 0.374705 0.361154 0.350655 0.343432 0.339040 0.336684 0.335570 0.335106 0.334943 0.334902 0.334849 0.334570 0.333667 0.331532 0.327459 0.320920 0.311924 0.301189 0.289920 0.279305 0.270074 0.262360 0.255821 0.249860 0.243820 0.237120 0.229340 0.220271 0.209936 0.198583 0.186637 0.174620 0.163041 0.152302 0.142634 0.134085 0.126547 0.119816 0.113642 0.107776 0.102001 0.096153 0.090126 0.083879 0.077427 0.070835 0.064202 0.057647 0.051295 0.373484 0.361025 0.350910 0.343603 0.338965 0.336417 0.335232 0.334778 0.334640 0.334606 0.334591 0.334507 0.334130 0.332983 0.330284 0.325066 0.316538 0.304593 0.290112 0.274724 0.260123 0.247450 0.237075 0.228742 0.221839 0.215641 0.209479 0.202831 0.195379 0.187025 0.177870 0.168173 0.158284 0.148561 0.139301 0.130692 0.122795 0.115563 0.108868 0.102545 0.096422 0.090350 0.084216 0.077958 0.071563 0.065063 0.058528 0.052055 0.045751 0.039727 0.361896 0.352287 0.344885 0.339840 0.336853 0.335364 0.334772 0.334602 0.334572 0.334570 0.334559 0.334464 0.334017 0.332612 0.329238 0.322602 0.311611 0.296083 0.277202 0.257192 0.238355 0.222236 0.209367 0.199495 0.191927 0.185826 0.180393 0.174976 0.169125 0.162606 0.155390 0.147609 0.139495 0.131315 0.123306 0.115634 0.108379 0.101537 0.095042 0.088792 0.082676 0.076598 0.070487 0.064309 0.058069 0.051806 0.045590 0.039506 0.033650 0.028115 0.353899 0.346632 0.341266 0.337774 0.335826 0.334937 0.334634 0.334573 0.334570 0.334570 0.334561 0.334444 0.333868 0.332047 0.327655 0.319001 0.304683 0.284596 0.260514 0.235510 0.212553 0.193456 0.178723 0.167939 0.160241 0.154637 0.150189 0.146113 0.141832 0.136994 0.131462 0.125280 0.118612 0.111678 0.104694 0.097830 0.091190 0.084808 0.078665 0.072707 0.066865 0.061077 0.055297 0.049506 0.043714 0.037958 0.032299 0.026809 0.021569 0.016657 0.348119 0.342718 0.338870 0.336472 0.335211 0.334693 0.334556 0.334553 0.334565 0.334565 0.334533 0.334310 0.333403 0.330757 0.324630 0.312856 0.293819 0.267853 0.237816 0.207897 0.181604 0.160671 0.145239 0.134537 0.127454 0.122840 0.119648 0.116997 0.114214 0.110860 0.106725 0.101803 0.096232 0.090228 0.084021 0.077806 0.071720 0.065837 0.060171 0.054698 0.049373 0.044149 0.038985 0.033862 0.028783 0.023772 0.018876 0.014153 0.009669 0.005487 0.343520 0.339605 0.336924 0.335345 0.334597 0.334367 0.334378 0.334447 0.334489 0.334475 0.334333 0.333784 0.332105 0.327842 0.318701 0.302039 0.276375 0.243204 0.207104 0.173390 0.145561 0.124665 0.110113 0.100660 0.094958 0.091768 0.090005 0.088757 0.087303 0.085153 0.082059 0.078001 0.073128 0.067691 0.061964 0.056192 0.050555 0.045160 0.040047 0.035207 0.030598 0.026167 0.021862 0.017647 0.013504 0.009439 0.005478 0.001663 -0.001954 -0.005321 0.339325 0.336603 0.334850 0.333931 0.333617 0.333657 0.333832 0.333994 0.334056 0.333940 0.333463 0.332131 0.328845 0.321584 0.307404 0.283448 0.249229 0.208499 0.167893 0.133085 0.106507 0.087889 0.075773 0.068524 0.064707 0.063122 0.062747 0.062703 0.062270 0.060934 0.058436 0.054770 0.050133 0.044844 0.039252 0.033668 0.028321 0.023352 0.018814 0.014695 0.010940 0.007472 0.004211 0.001088 -0.001944 -0.004906 -0.007797 -0.010593 -0.013257 -0.015744 0.334923 0.333155 0.332145 0.331765 0.331821 0.332103 0.332421 0.332625 0.332582 0.332103 0.330796 0.327810 0.321485 0.309081 0.287177 0.253582 0.210303 0.164179 0.122972 0.090994 0.068574 0.054007 0.045242 0.040563 0.038663 0.038513 0.039229 0.040010 0.040157 0.039150 0.036729 0.032927 0.028018 0.022422 0.016588 0.010906 0.005659 0.001011 -0.002983 -0.006353 -0.009184 -0.011590 -0.013693 -0.015603 -0.017405 -0.019157 -0.020884 -0.022582 -0.024230 -0.025789 0.329822 0.328776 0.328320 0.328331 0.328637 0.329044 0.329359 0.329386 0.328885 0.327466 0.324396 0.318296 0.306802 0.286583 0.254575 0.210965 0.161561 0.115335 0.078675 0.052951 0.036363 0.026385 0.020925 0.018509 0.018114 0.018946 0.020284 0.021408 0.021635 0.020432 0.017546 0.013064 0.007372 0.001020 -0.005419 -0.011471 -0.016806 -0.021252 -0.024768 -0.027415 -0.029319 -0.030639 -0.031546 -0.032195 -0.032717 -0.033206 -0.033718 -0.034275 -0.034870 -0.035474 0.323626 0.323050 0.322912 0.323090 0.323413 0.323677 0.323642 0.323015 0.321369 0.318009 0.311734 0.300545 0.281525 0.251537 0.209553 0.159657 0.110601 0.070379 0.041852 0.023560 0.012633 0.006563 0.003638 0.002779 0.003278 0.004559 0.006035 0.007038 0.006878 0.004993 0.001134 -0.004529 -0.011466 -0.018956 -0.026292 -0.032919 -0.038484 -0.042827 -0.045942 -0.047931 -0.048965 -0.049250 -0.049001 -0.048419 -0.047679 -0.046914 -0.046214 -0.045626 -0.045162 -0.044804 0.316051 0.315655 0.315538 0.315565 0.315542 0.315219 0.314269 0.312240 0.308450 0.301826 0.290689 0.272630 0.244902 0.206002 0.158318 0.109104 0.066802 0.035881 0.015877 0.003974 -0.002663 -0.006046 -0.007395 -0.007416 -0.006570 -0.005271 -0.004027 -0.003493 -0.004401 -0.007361 -0.012611 -0.019867 -0.028402 -0.037293 -0.045694 -0.052992 -0.058844 -0.063134 -0.065911 -0.067327 -0.067594 -0.066957 -0.065666 -0.063960 -0.062048 -0.060103 -0.058247 -0.056556 -0.055063 -0.053764 0.306943 0.306413 0.305976 0.305463 0.304635 0.303166 0.300604 0.296303 0.289312 0.278239 0.261172 0.235914 0.200977 0.157497 0.110661 0.068034 0.035183 0.013176 -0.000107 -0.007549 -0.011447 -0.013256 -0.013787 -0.013482 -0.012636 -0.011572 -0.010769 -0.010911 -0.012803 -0.017117 -0.024064 -0.033196 -0.043535 -0.053929 -0.063404 -0.071334 -0.077431 -0.081659 -0.084138 -0.085070 -0.084704 -0.083305 -0.081143 -0.078480 -0.075552 -0.072560 -0.069659 -0.066952 -0.064497 -0.062308 0.296304 0.295332 0.294231 0.292786 0.290695 0.287538 0.282735 0.275469 0.264614 0.248697 0.226048 0.195406 0.157139 0.114515 0.073376 0.039389 0.015138 -0.000178 -0.008985 -0.013695 -0.016031 -0.017016 -0.017191 -0.016833 -0.016147 -0.015419 -0.015139 -0.016055 -0.019066 -0.024912 -0.033742 -0.044886 -0.057061 -0.068878 -0.079277 -0.087677 -0.093895 -0.098004 -0.100201 -0.100738 -0.099881 -0.097903 -0.095076 -0.091665 -0.087920 -0.084062 -0.080271 -0.076678 -0.073364 -0.070365 0.284290 0.282616 0.280565 0.277873 0.274174 0.268971 0.261590 0.251144 0.236520 0.216484 0.190037 0.157144 0.119644 0.081519 0.047613 0.021360 0.003480 -0.007441 -0.013547 -0.016715 -0.018226 -0.018819 -0.018869 -0.018569 -0.018086 -0.017710 -0.017975 -0.019712 -0.023927 -0.031405 -0.042187 -0.055315 -0.069173 -0.082163 -0.093209 -0.101837 -0.108011 -0.111923 -0.113846 -0.114068 -0.112861 -0.110487 -0.107205 -0.103268 -0.098927 -0.094408 -0.089912 -0.085591 -0.081551 -0.077849 0.271190 0.268635 0.265456 0.261349 0.255904 0.248585 0.238708 0.225443 0.207886 0.185267 0.157373 0.125127 0.090981 0.058524 0.031168 0.010747 -0.002877 -0.011113 -0.015689 -0.018047 -0.019159 -0.019586 -0.019615 -0.019406 -0.019128 -0.019104 -0.019933 -0.022542 -0.028029 -0.037181 -0.049862 -0.064778 -0.079993 -0.093780 -0.105126 -0.113721 -0.119690 -0.123339 -0.125002 -0.124984 -0.123551 -0.120945 -0.117399 -0.113145 -0.108419 -0.103449 -0.098440 -0.093565 -0.088949 -0.084671 0.257376 0.253864 0.249512 0.243994 0.236892 0.227687 0.215764 0.200460 0.181188 0.157676 0.130320 0.100506 0.070616 0.043447 0.021227 0.004869 -0.006043 -0.012709 -0.016475 -0.018455 -0.019411 -0.019797 -0.019859 -0.019760 -0.019699 -0.020054 -0.021503 -0.025065 -0.031887 -0.042688 -0.057078 -0.073422 -0.089541 -0.103686 -0.114990 -0.123330 -0.128980 -0.132332 -0.133759 -0.133570 -0.132015 -0.129310 -0.125655 -0.121259 -0.116336 -0.111102 -0.105767 -0.100509 -0.095472 -0.090752 0.243253 0.238808 0.233360 0.226589 0.218102 0.207446 0.194131 0.177710 0.157913 0.134854 0.109256 0.082573 0.056806 0.033992 0.015560 0.001957 -0.007262 -0.013045 -0.016429 -0.018287 -0.019236 -0.019664 -0.019810 -0.019859 -0.020063 -0.020872 -0.023046 -0.027666 -0.035864 -0.048194 -0.063964 -0.081246 -0.097754 -0.111838 -0.122823 -0.130761 -0.136036 -0.139095 -0.140325 -0.140027 -0.138430 -0.135721 -0.132075 -0.127669 -0.122696 -0.117358 -0.111857 -0.106375 -0.101063 -0.096034 0.229199 0.223926 0.217553 0.209786 0.200288 0.188697 0.174670 0.157964 0.138556 0.116788 0.093486 0.069953 0.047760 0.028356 0.012671 0.000939 -0.007221 -0.012532 -0.015790 -0.017684 -0.018730 -0.019277 -0.019573 -0.019844 -0.020409 -0.021794 -0.024827 -0.030604 -0.040152 -0.053772 -0.070467 -0.088135 -0.104539 -0.118222 -0.128708 -0.136179 -0.141083 -0.143884 -0.144964 -0.144609 -0.143027 -0.140381 -0.136819 -0.132497 -0.127583 -0.122263 -0.116727 -0.111155 -0.105702 -0.100488 0.215535 0.209589 0.202512 0.194050 0.183933 0.171900 0.157742 0.141378 0.122940 0.102869 0.081955 0.061284 0.042047 0.025277 0.011607 0.001174 -0.006313 -0.011393 -0.014676 -0.016713 -0.017941 -0.018691 -0.019229 -0.019834 -0.020891 -0.022998 -0.027021 -0.033998 -0.044762 -0.059312 -0.076410 -0.093932 -0.109830 -0.122885 -0.132788 -0.139794 -0.144368 -0.146964 -0.147945 -0.147577 -0.146049 -0.143507 -0.140078 -0.135899 -0.131118 -0.125904 -0.120435 -0.114881 -0.109398 -0.104109 0.885948 0.882540 0.875885 0.865344 0.850419 0.831211 0.808933 0.785979 0.765146 0.748408 0.736227 0.727799 0.721745 0.716639 0.711226 0.704420 0.695245 0.682826 0.666477 0.645884 0.621274 0.593458 0.563692 0.533487 0.504445 0.478110 0.455748 0.438145 0.425484 0.417297 0.412557 0.410008 0.408536 0.407279 0.405489 0.402343 0.396908 0.388347 0.376262 0.360946 0.343345 0.324742 0.306357 0.289093 0.273458 0.259629 0.247557 0.237075 0.227964 0.220003 0.886536 0.883172 0.876482 0.865791 0.850560 0.830884 0.808051 0.784624 0.763573 0.746942 0.735127 0.727199 0.721665 0.717026 0.711978 0.705384 0.696217 0.683557 0.666734 0.645561 0.620490 0.592513 0.562877 0.532885 0.503918 0.477439 0.454767 0.436809 0.423933 0.415843 0.411501 0.409477 0.408530 0.407807 0.406609 0.404058 0.399006 0.390303 0.377317 0.360373 0.340727 0.320087 0.300015 0.281574 0.265271 0.251192 0.239172 0.228933 0.220175 0.212618 0.884395 0.880933 0.874037 0.863038 0.847432 0.827394 0.804336 0.780937 0.760213 0.744148 0.733022 0.725795 0.720901 0.716795 0.712128 0.705714 0.696459 0.683408 0.665960 0.644175 0.618868 0.591257 0.562450 0.533332 0.504912 0.478550 0.455643 0.437180 0.423698 0.415230 0.410903 0.409124 0.408460 0.408038 0.407199 0.405005 0.400069 0.390893 0.376614 0.357657 0.335707 0.312981 0.291384 0.272071 0.255461 0.241485 0.229822 0.220077 0.211865 0.204857 0.879150 0.875452 0.868192 0.856761 0.840772 0.820570 0.797718 0.774933 0.755118 0.740071 0.729922 0.723553 0.719366 0.715799 0.711470 0.705137 0.695640 0.682007 0.663786 0.641439 0.616275 0.589720 0.562548 0.534988 0.507551 0.481560 0.458602 0.439684 0.425304 0.415864 0.410983 0.409074 0.408454 0.408123 0.407385 0.405184 0.399859 0.389586 0.373373 0.351917 0.327486 0.302846 0.280145 0.260484 0.244082 0.230646 0.219685 0.210688 0.203205 0.196873 0.870285 0.866240 0.858524 0.846644 0.830412 0.810399 0.788301 0.766754 0.748397 0.734743 0.725764 0.720309 0.716798 0.713676 0.709542 0.703103 0.693150 0.678742 0.659696 0.637025 0.612599 0.587911 0.563172 0.537769 0.511653 0.486207 0.463441 0.444428 0.429280 0.418408 0.412198 0.409562 0.408648 0.408163 0.407187 0.404413 0.397877 0.385536 0.366525 0.342109 0.315286 0.289265 0.266207 0.246945 0.231376 0.218957 0.209036 0.201016 0.194412 0.188850 0.857230 0.852794 0.844655 0.832493 0.816365 0.797067 0.776347 0.756629 0.740162 0.728133 0.720380 0.715772 0.712790 0.709912 0.705735 0.698934 0.688294 0.673007 0.653301 0.630832 0.607914 0.585855 0.564132 0.541282 0.516698 0.491862 0.469419 0.450785 0.435574 0.423515 0.415387 0.411167 0.409314 0.408165 0.406314 0.402029 0.393050 0.377372 0.354687 0.327177 0.298561 0.272175 0.249823 0.231852 0.217775 0.206817 0.198219 0.191348 0.185719 0.180978 0.839567 0.834805 0.826455 0.814398 0.798924 0.780982 0.762250 0.744815 0.730484 0.720134 0.713518 0.709572 0.706875 0.703967 0.699458 0.692035 0.680563 0.664511 0.644635 0.623151 0.602497 0.583513 0.564973 0.544775 0.521853 0.497679 0.475514 0.457402 0.442825 0.430599 0.420905 0.414471 0.410667 0.407778 0.403824 0.396545 0.383520 0.363213 0.336402 0.306386 0.277278 0.251994 0.231596 0.215817 0.203815 0.194670 0.187589 0.181965 0.177351 0.173436 0.817352 0.812460 0.804288 0.792896 0.778734 0.762774 0.746492 0.731574 0.719406 0.710610 0.704912 0.701356 0.698645 0.695404 0.690296 0.682087 0.669847 0.653451 0.634176 0.614501 0.596569 0.580615 0.564944 0.547178 0.525988 0.502678 0.480782 0.462955 0.448985 0.437237 0.426921 0.418434 0.411781 0.405637 0.397766 0.385576 0.366866 0.341161 0.310736 0.279780 0.252106 0.229605 0.212363 0.199529 0.190034 0.182923 0.177460 0.173109 0.169497 0.166373 0.791476 0.786748 0.779235 0.769102 0.756833 0.743289 0.729657 0.717224 0.707019 0.699492 0.694393 0.690899 0.687861 0.684016 0.678136 0.669158 0.656466 0.640380 0.622505 0.605171 0.589941 0.576520 0.563050 0.547233 0.527744 0.505653 0.484290 0.466543 0.452645 0.441023 0.430277 0.419988 0.409961 0.399135 0.385430 0.366503 0.341078 0.310352 0.278069 0.248544 0.224436 0.206222 0.193042 0.183645 0.176892 0.171908 0.168072 0.164963 0.162301 0.159905 0.763900 0.759636 0.753187 0.744726 0.734653 0.723620 0.712498 0.702228 0.693578 0.686899 0.682003 0.678217 0.674553 0.669903 0.663203 0.653639 0.640947 0.625785 0.609783 0.594821 0.581823 0.570163 0.558073 0.543576 0.525605 0.505064 0.484728 0.467192 0.452949 0.440709 0.428859 0.416307 0.402266 0.385586 0.364585 0.337912 0.306058 0.272176 0.240790 0.215240 0.196413 0.183397 0.174670 0.168827 0.164813 0.161901 0.159618 0.157666 0.155865 0.154111 0.737478 0.733878 0.728662 0.721938 0.713948 0.705107 0.696001 0.687305 0.679614 0.673239 0.668082 0.663627 0.659062 0.653459 0.645966 0.636033 0.623683 0.609713 0.595528 0.582447 0.570883 0.560070 0.548490 0.534641 0.517880 0.499069 0.480299 0.463446 0.448883 0.435535 0.421781 0.406111 0.387223 0.363857 0.335049 0.301156 0.264954 0.231094 0.203614 0.183924 0.171079 0.163212 0.158582 0.155897 0.154288 0.153195 0.152275 0.151330 0.150265 0.149043 0.715217 0.712337 0.708247 0.702957 0.696549 0.689230 0.681367 0.673447 0.665965 0.659245 0.653291 0.647752 0.642000 0.635295 0.626993 0.616762 0.604777 0.591780 0.578823 0.566717 0.555532 0.544523 0.532544 0.518680 0.502831 0.485899 0.469277 0.453894 0.439601 0.425270 0.409274 0.389907 0.365653 0.335523 0.299808 0.261072 0.224126 0.193849 0.172480 0.159191 0.151718 0.147907 0.146245 0.145774 0.145868 0.146107 0.146218 0.146051 0.145552 0.144726 0.699198 0.696994 0.693758 0.689410 0.683904 0.677295 0.669791 0.661765 0.653670 0.645880 0.638531 0.631440 0.624162 0.616132 0.606872 0.596170 0.584215 0.571564 0.558891 0.546613 0.534619 0.522340 0.509150 0.494853 0.479947 0.465344 0.451710 0.438931 0.426062 0.411581 0.393694 0.370640 0.341112 0.305020 0.264513 0.224371 0.190367 0.166094 0.151356 0.143550 0.139899 0.138519 0.138390 0.138970 0.139892 0.140839 0.141555 0.141873 0.141732 0.141148 0.689830 0.688229 0.685583 0.681739 0.676554 0.669965 0.662069 0.653160 0.643691 0.634125 0.624761 0.615609 0.606404 0.596735 0.586225 0.574691 0.562227 0.549148 0.535803 0.522351 0.508682 0.494596 0.480155 0.465942 0.452863 0.441558 0.431868 0.422747 0.412470 0.398904 0.379819 0.353362 0.318845 0.277805 0.234716 0.196016 0.167026 0.149106 0.139893 0.135872 0.134389 0.134071 0.134386 0.135149 0.136202 0.137317 0.138234 0.138745 0.138751 0.138250 0.685958 0.684892 0.682668 0.679079 0.673898 0.666954 0.658231 0.647948 0.636565 0.624664 0.612745 0.601046 0.589503 0.577843 0.565747 0.552996 0.539546 0.525493 0.510969 0.496074 0.480929 0.465890 0.451718 0.439417 0.429696 0.422486 0.416907 0.411457 0.404067 0.392043 0.372351 0.342664 0.303087 0.257527 0.213117 0.177098 0.153183 0.140372 0.134896 0.133036 0.132550 0.132533 0.132796 0.133365 0.134216 0.135189 0.136032 0.136508 0.136481 0.135922 0.685659 0.685046 0.683156 0.679738 0.674489 0.667120 0.657478 0.645676 0.632160 0.617626 0.602803 0.588203 0.574001 0.560072 0.546146 0.531960 0.517353 0.502287 0.486849 0.47128