# vtk DataFile Version 3.0
vtk output
ASCII
DATASET STRUCTURED_POINTS
DIMENSIONS 5 5 5
SPACING 1 1 1
ORIGIN -2 -2 -2
POINT_DATA 125
SCALARS RTData float
LOOKUP_TABLE default
60.7635 103.035 107.555 90.0291 80.5241 91.8305 145.881 155.416 132.875 
111.591 85.9694 145.035 156.706 132.029 105.73 58.0625 112.113 121.648 
99.107 77.8231 37.3531 79.6245 84.1445 66.6187 57.1137 80.4159 134.466 
144.001 121.46 100.177 123.262 194.45 211.283 181.445 143.022 122.416 
200.902 220.841 187.896 142.177 89.4938 160.682 177.515 147.677 109.254 
57.0055 111.056 120.591 98.0501 76.7662 100.634 159.7 171.37 146.694 
120.395 148.495 226.981 246.921 213.975 168.256 149.785 236.54 260 
223.534 169.546 114.727 193.213 213.153 180.207 134.488 77.2238 136.289 
147.96 123.284 96.9844 80.4159 134.466 144.001 121.46 100.177 123.262 
194.45 211.283 181.445 143.022 122.416 200.902 220.841 187.896 142.177 
89.4938 160.682 177.515 147.677 109.254 57.0055 111.056 120.591 98.0501 
76.7662 60.7635 103.035 107.555 90.0291 80.5241 91.8305 145.881 155.416 
132.875 111.591 85.9694 145.035 156.706 132.029 105.73 58.0625 112.113 
121.648 99.107 77.8231 37.3531 79.6245 84.1445 66.6187 57.1137 
